
     Program PWSCF v.6.1 (svn rev. 13369) starts on 18Oct2017 at 16:37:13 

     This program is part of the open-source Quantum ESPRESSO suite
     for quantum simulation of materials; please cite
         "P. Giannozzi et al., J. Phys.:Condens. Matter 21 395502 (2009);
          URL http://www.quantum-espresso.org", 
     in publications or presentations arising from this work. More details at
     http://www.quantum-espresso.org/quote

     Parallel version (MPI), running on     1 processors
     Reading input from P.in

     Current dimensions of program PWSCF are:
     Max number of different atomic species (ntypx) = 10
     Max number of k-points (npk) =  40000
     Max angular momentum in pseudopotentials (lmaxx) =  3
               file P.pbe-n-kjpaw_psl.0.1.UPF: wavefunction(s)  3P renormalized

     Subspace diagonalization in iterative solution of the eigenvalue problem:
     a serial algorithm will be used

     Found symmetry operation: I + (  0.5000  0.0000  0.5000)
     This is a supercell, fractional translations are disabled

     G-vector sticks info
     --------------------
     sticks:   dense  smooth     PW     G-vecs:    dense   smooth      PW
     Sum        1643    1157    287               138717    81217   10139



     bravais-lattice index     =            0
     lattice parameter (alat)  =       6.2550  a.u.
     unit-cell volume          =    1027.2781 (a.u.)^3
     number of atoms/cell      =            8
     number of atomic types    =            1
     number of electrons       =        40.00
     number of Kohn-Sham states=           20
     kinetic-energy cutoff     =      70.0000  Ry
     charge density cutoff     =     400.0000  Ry
     convergence threshold     =      1.0E-09
     mixing beta               =       0.7000
     number of iterations used =            8  plain     mixing
     Exchange-correlation      =  SLA  PW   PBX  PBC ( 1  4  3  4 0 0)

     celldm(1)=   6.254993  celldm(2)=   0.000000  celldm(3)=   0.000000
     celldm(4)=   0.000000  celldm(5)=   0.000000  celldm(6)=   0.000000

     crystal axes: (cart. coord. in units of alat)
               a(1) = (   1.000000   0.000000   0.000000 )  
               a(2) = (   0.000000   1.323263   0.000000 )  
               a(3) = (   0.000000   0.000000   3.172205 )  

     reciprocal axes: (cart. coord. in units 2 pi/alat)
               b(1) = (  1.000000  0.000000  0.000000 )  
               b(2) = (  0.000000  0.755708  0.000000 )  
               b(3) = (  0.000000  0.000000  0.315238 )  


     PseudoPot. # 1 for  P read from file:
     ./P.pbe-n-kjpaw_psl.0.1.UPF
     MD5 check sum: 3459c23ebd5722f16ad74709d9430968
     Pseudo is Projector augmented-wave + core cor, Zval =  5.0
     Generated using "atomic" code by A. Dal Corso  v.5.0.2 svn rev. 9415
     Shape of augmentation charge: PSQ
     Using radial grid of 1147 points,  4 beta functions with: 
                l(1) =   0
                l(2) =   0
                l(3) =   1
                l(4) =   1
     Q(r) pseudized with 0 coefficients 


     atomic species   valence    mass     pseudopotential
        P              5.00    26.00000      P( 1.00)

      4 Sym. Ops., with inversion, found



   Cartesian axes

     site n.     atom                  positions (alat units)
         1           P   tau(   1) = (   0.0000000   0.1190937   0.3108761  )
         2           P   tau(   2) = (   0.0000000   1.2041692   2.8613294  )
         3           P   tau(   3) = (   0.0000000   0.7807252   1.2752266  )
         4           P   tau(   4) = (   0.0000000   0.5425378   1.8969789  )
         5           P   tau(   5) = (   0.5000000   0.1190937   1.8969789  )
         6           P   tau(   6) = (   0.5000000   1.2041692   1.2752266  )
         7           P   tau(   7) = (   0.5000000   0.7807252   2.8613294  )
         8           P   tau(   8) = (   0.5000000   0.5425378   0.3108761  )

     number of k points=     1
                       cart. coord. in units 2pi/alat
        k(    1) = (   0.0000000   0.0000000   0.0000000), wk =   2.0000000

     Dense  grid:   138717 G-vectors     FFT dimensions: (  40,  54, 128)

     Smooth grid:    81217 G-vectors     FFT dimensions: (  36,  45, 108)

     Estimated max dynamical RAM per process >     112.15MB

     Initial potential from superposition of free atoms

     starting charge   39.99872, renormalised to   40.00000
     Starting wfc are   32 randomized atomic wfcs
     Checking if some PAW data can be deallocated... 

     total cpu time spent up to now is        1.9 secs

     Self-consistent Calculation

     iteration #  1     ecut=    70.00 Ry     beta=0.70
     Davidson diagonalization with overlap
     ethr =  1.00E-02,  avg # of iterations =  2.0

     Threshold (ethr) on eigenvalues was too large:
     Diagonalizing with lowered threshold

     Davidson diagonalization with overlap
     ethr =  8.79E-04,  avg # of iterations =  4.0

     total cpu time spent up to now is        3.7 secs

     total energy              =    -443.16507746 Ry
     Harris-Foulkes estimate   =    -443.23424092 Ry
     estimated scf accuracy    <       0.32712548 Ry

     iteration #  2     ecut=    70.00 Ry     beta=0.70
     Davidson diagonalization with overlap
     ethr =  8.18E-04,  avg # of iterations =  1.0

     total cpu time spent up to now is        4.7 secs

     total energy              =    -443.17787584 Ry
     Harris-Foulkes estimate   =    -443.17825318 Ry
     estimated scf accuracy    <       0.01905404 Ry

     iteration #  3     ecut=    70.00 Ry     beta=0.70
     Davidson diagonalization with overlap
     ethr =  4.76E-05,  avg # of iterations =  6.0

     total cpu time spent up to now is        5.9 secs

     total energy              =    -443.25472278 Ry
     Harris-Foulkes estimate   =    -443.24623412 Ry
     estimated scf accuracy    <       0.15582424 Ry

     iteration #  4     ecut=    70.00 Ry     beta=0.70
     Davidson diagonalization with overlap
     ethr =  4.76E-05,  avg # of iterations =  1.0

     total cpu time spent up to now is        7.0 secs

     total energy              =    -443.22545257 Ry
     Harris-Foulkes estimate   =    -443.25513354 Ry
     estimated scf accuracy    <       0.18344006 Ry

     iteration #  5     ecut=    70.00 Ry     beta=0.70
     Davidson diagonalization with overlap
     ethr =  4.76E-05,  avg # of iterations =  6.0

     total cpu time spent up to now is        8.2 secs

     total energy              =    -443.20252111 Ry
     Harris-Foulkes estimate   =    -443.22822731 Ry
     estimated scf accuracy    <       0.08194237 Ry

     iteration #  6     ecut=    70.00 Ry     beta=0.70
     Davidson diagonalization with overlap
     ethr =  4.76E-05,  avg # of iterations =  6.0

     total cpu time spent up to now is        9.5 secs

     total energy              =    -443.21436635 Ry
     Harris-Foulkes estimate   =    -443.21567985 Ry
     estimated scf accuracy    <       0.00866153 Ry

     iteration #  7     ecut=    70.00 Ry     beta=0.70
     Davidson diagonalization with overlap
     ethr =  2.17E-05,  avg # of iterations =  5.0

     total cpu time spent up to now is       10.7 secs

     total energy              =    -443.21124620 Ry
     Harris-Foulkes estimate   =    -443.21583002 Ry
     estimated scf accuracy    <       0.01125293 Ry

     iteration #  8     ecut=    70.00 Ry     beta=0.70
     Davidson diagonalization with overlap
     ethr =  2.17E-05,  avg # of iterations =  7.0

     total cpu time spent up to now is       12.0 secs

     total energy              =    -443.21260400 Ry
     Harris-Foulkes estimate   =    -443.21954640 Ry
     estimated scf accuracy    <       0.03374717 Ry

     iteration #  9     ecut=    70.00 Ry     beta=0.70
     Davidson diagonalization with overlap
     ethr =  2.17E-05,  avg # of iterations =  7.0

     total cpu time spent up to now is       13.2 secs

     total energy              =    -443.21423084 Ry
     Harris-Foulkes estimate   =    -443.21490481 Ry
     estimated scf accuracy    <       0.00241893 Ry

     iteration # 10     ecut=    70.00 Ry     beta=0.70
     Davidson diagonalization with overlap
     ethr =  6.05E-06,  avg # of iterations =  8.0

     total cpu time spent up to now is       14.5 secs

     total energy              =    -443.21460266 Ry
     Harris-Foulkes estimate   =    -443.21485815 Ry
     estimated scf accuracy    <       0.00106381 Ry

     iteration # 11     ecut=    70.00 Ry     beta=0.70
     Davidson diagonalization with overlap
     ethr =  2.66E-06,  avg # of iterations =  6.0

     total cpu time spent up to now is       15.6 secs

     total energy              =    -443.21472359 Ry
     Harris-Foulkes estimate   =    -443.21472575 Ry
     estimated scf accuracy    <       0.00002046 Ry

     iteration # 12     ecut=    70.00 Ry     beta=0.70
     Davidson diagonalization with overlap
     ethr =  5.12E-08,  avg # of iterations = 12.0

     total cpu time spent up to now is       17.0 secs

     total energy              =    -443.21474195 Ry
     Harris-Foulkes estimate   =    -443.21474884 Ry
     estimated scf accuracy    <       0.00008609 Ry

     iteration # 13     ecut=    70.00 Ry     beta=0.70
     Davidson diagonalization with overlap
     ethr =  5.12E-08,  avg # of iterations =  1.0

     total cpu time spent up to now is       18.1 secs

     total energy              =    -443.21472877 Ry
     Harris-Foulkes estimate   =    -443.21474233 Ry
     estimated scf accuracy    <       0.00006479 Ry

     iteration # 14     ecut=    70.00 Ry     beta=0.70
     Davidson diagonalization with overlap
     ethr =  5.12E-08,  avg # of iterations =  6.0

     total cpu time spent up to now is       19.3 secs

     total energy              =    -443.21473999 Ry
     Harris-Foulkes estimate   =    -443.21474009 Ry
     estimated scf accuracy    <       0.00001132 Ry

     iteration # 15     ecut=    70.00 Ry     beta=0.70
     Davidson diagonalization with overlap
     ethr =  2.83E-08,  avg # of iterations =  1.0

     total cpu time spent up to now is       20.5 secs

     total energy              =    -443.21473926 Ry
     Harris-Foulkes estimate   =    -443.21474017 Ry
     estimated scf accuracy    <       0.00001080 Ry

     iteration # 16     ecut=    70.00 Ry     beta=0.70
     Davidson diagonalization with overlap
     ethr =  2.70E-08,  avg # of iterations =  1.0

     total cpu time spent up to now is       21.6 secs

     total energy              =    -443.21473856 Ry
     Harris-Foulkes estimate   =    -443.21473933 Ry
     estimated scf accuracy    <       0.00000796 Ry

     iteration # 17     ecut=    70.00 Ry     beta=0.70
     Davidson diagonalization with overlap
     ethr =  1.99E-08,  avg # of iterations =  5.0

     total cpu time spent up to now is       22.7 secs

     total energy              =    -443.21473925 Ry
     Harris-Foulkes estimate   =    -443.21473934 Ry
     estimated scf accuracy    <       0.00000134 Ry

     iteration # 18     ecut=    70.00 Ry     beta=0.70
     Davidson diagonalization with overlap
     ethr =  3.35E-09,  avg # of iterations =  1.0

     total cpu time spent up to now is       23.9 secs

     total energy              =    -443.21473921 Ry
     Harris-Foulkes estimate   =    -443.21473927 Ry
     estimated scf accuracy    <       0.00000109 Ry

     iteration # 19     ecut=    70.00 Ry     beta=0.70
     Davidson diagonalization with overlap
     ethr =  2.73E-09,  avg # of iterations =  1.0

     total cpu time spent up to now is       25.0 secs

     total energy              =    -443.21473911 Ry
     Harris-Foulkes estimate   =    -443.21473922 Ry
     estimated scf accuracy    <       0.00000087 Ry

     iteration # 20     ecut=    70.00 Ry     beta=0.70
     Davidson diagonalization with overlap
     ethr =  2.18E-09,  avg # of iterations = 12.0

     total cpu time spent up to now is       26.3 secs

     total energy              =    -443.21473933 Ry
     Harris-Foulkes estimate   =    -443.21473932 Ry
     estimated scf accuracy    <       0.00000015 Ry

     iteration # 21     ecut=    70.00 Ry     beta=0.70
     Davidson diagonalization with overlap
     c_bands:  1 eigenvalues not converged
     ethr =  3.65E-10,  avg # of iterations = 20.0

     total cpu time spent up to now is       28.3 secs

     total energy              =    -443.21473940 Ry
     Harris-Foulkes estimate   =    -443.21473941 Ry
     estimated scf accuracy    <       0.00000038 Ry

     iteration # 22     ecut=    70.00 Ry     beta=0.70
     Davidson diagonalization with overlap
     ethr =  3.65E-10,  avg # of iterations =  3.0

     total cpu time spent up to now is       29.5 secs

     total energy              =    -443.21473938 Ry
     Harris-Foulkes estimate   =    -443.21473940 Ry
     estimated scf accuracy    <       0.00000032 Ry

     iteration # 23     ecut=    70.00 Ry     beta=0.70
     Davidson diagonalization with overlap
     ethr =  3.65E-10,  avg # of iterations =  5.0

     total cpu time spent up to now is       30.7 secs

     total energy              =    -443.21473938 Ry
     Harris-Foulkes estimate   =    -443.21473939 Ry
     estimated scf accuracy    <       0.00000008 Ry

     iteration # 24     ecut=    70.00 Ry     beta=0.70
     Davidson diagonalization with overlap
     ethr =  1.96E-10,  avg # of iterations =  1.0

     total cpu time spent up to now is       31.9 secs

     total energy              =    -443.21473938 Ry
     Harris-Foulkes estimate   =    -443.21473938 Ry
     estimated scf accuracy    <       0.00000005 Ry

     iteration # 25     ecut=    70.00 Ry     beta=0.70
     Davidson diagonalization with overlap
     ethr =  1.28E-10,  avg # of iterations =  5.0

     total cpu time spent up to now is       33.2 secs

     total energy              =    -443.21473938 Ry
     Harris-Foulkes estimate   =    -443.21473938 Ry
     estimated scf accuracy    <          2.2E-09 Ry

     iteration # 26     ecut=    70.00 Ry     beta=0.70
     Davidson diagonalization with overlap
     ethr =  5.50E-12,  avg # of iterations = 16.0

     total cpu time spent up to now is       34.6 secs

     total energy              =    -443.21473938 Ry
     Harris-Foulkes estimate   =    -443.21473938 Ry
     estimated scf accuracy    <          5.1E-09 Ry

     iteration # 27     ecut=    70.00 Ry     beta=0.70
     Davidson diagonalization with overlap
     ethr =  5.50E-12,  avg # of iterations =  8.0

     total cpu time spent up to now is       36.0 secs

     total energy              =    -443.21473938 Ry
     Harris-Foulkes estimate   =    -443.21473938 Ry
     estimated scf accuracy    <       0.00000001 Ry

     iteration # 28     ecut=    70.00 Ry     beta=0.70
     Davidson diagonalization with overlap
     ethr =  5.50E-12,  avg # of iterations =  6.0

     total cpu time spent up to now is       37.3 secs

     total energy              =    -443.21473938 Ry
     Harris-Foulkes estimate   =    -443.21473938 Ry
     estimated scf accuracy    <          9.5E-09 Ry

     iteration # 29     ecut=    70.00 Ry     beta=0.70
     Davidson diagonalization with overlap
     ethr =  5.50E-12,  avg # of iterations =  7.0

     total cpu time spent up to now is       38.9 secs

     total energy              =    -443.21473937 Ry
     Harris-Foulkes estimate   =    -443.21473941 Ry
     estimated scf accuracy    <       0.00000030 Ry

     iteration # 30     ecut=    70.00 Ry     beta=0.70
     Davidson diagonalization with overlap
     ethr =  5.50E-12,  avg # of iterations =  7.0

     total cpu time spent up to now is       40.3 secs

     total energy              =    -443.21473939 Ry
     Harris-Foulkes estimate   =    -443.21473938 Ry
     estimated scf accuracy    <       0.00000001 Ry

     iteration # 31     ecut=    70.00 Ry     beta=0.70
     Davidson diagonalization with overlap
     ethr =  5.50E-12,  avg # of iterations =  6.0

     total cpu time spent up to now is       41.6 secs

     total energy              =    -443.21473938 Ry
     Harris-Foulkes estimate   =    -443.21473939 Ry
     estimated scf accuracy    <       0.00000004 Ry

     iteration # 32     ecut=    70.00 Ry     beta=0.70
     Davidson diagonalization with overlap
     ethr =  5.50E-12,  avg # of iterations =  6.0

     total cpu time spent up to now is       42.9 secs

     total energy              =    -443.21473938 Ry
     Harris-Foulkes estimate   =    -443.21473938 Ry
     estimated scf accuracy    <          2.8E-09 Ry

     iteration # 33     ecut=    70.00 Ry     beta=0.70
     Davidson diagonalization with overlap
     ethr =  5.50E-12,  avg # of iterations =  6.0

     total cpu time spent up to now is       44.2 secs

     total energy              =    -443.21473938 Ry
     Harris-Foulkes estimate   =    -443.21473938 Ry
     estimated scf accuracy    <          2.8E-09 Ry

     iteration # 34     ecut=    70.00 Ry     beta=0.70
     Davidson diagonalization with overlap
     ethr =  5.50E-12,  avg # of iterations =  1.0

     total cpu time spent up to now is       45.4 secs

     total energy              =    -443.21473938 Ry
     Harris-Foulkes estimate   =    -443.21473938 Ry
     estimated scf accuracy    <          2.6E-09 Ry

     iteration # 35     ecut=    70.00 Ry     beta=0.70
     Davidson diagonalization with overlap
     ethr =  5.50E-12,  avg # of iterations =  6.0

     total cpu time spent up to now is       46.6 secs

     End of self-consistent calculation

          k = 0.0000 0.0000 0.0000 ( 10139 PWs)   bands (ev):

    -8.5076  -8.3131  -5.9399  -5.4597  -2.0648  -1.9556   0.4602   1.4150
     1.9079   2.4066   2.7580   3.0723   3.1674   3.2168   4.7665   4.9597
     5.0091   6.3219   6.3453   7.8272

     highest occupied level (ev):     7.8272

!    total energy              =    -443.21473938 Ry
     Harris-Foulkes estimate   =    -443.21473938 Ry
     estimated scf accuracy    <          1.3E-10 Ry

     total all-electron energy =     -5472.522312 Ry

     The total energy is the sum of the following terms:

     one-electron contribution =      17.79489040 Ry
     hartree contribution      =      13.15375639 Ry
     xc contribution           =     -47.34668928 Ry
     ewald contribution        =    -102.79545166 Ry
     one-center paw contrib.   =    -324.02124523 Ry

     convergence has been achieved in  35 iterations

     Writing output data file P_paw.save

     init_run     :      1.74s CPU      1.79s WALL (       1 calls)
     electrons    :     73.53s CPU     44.67s WALL (       1 calls)

     Called by init_run:
     wfcinit      :      0.27s CPU      0.26s WALL (       1 calls)
     potinit      :      0.64s CPU      0.65s WALL (       1 calls)

     Called by electrons:
     c_bands      :     32.08s CPU     16.16s WALL (      36 calls)
     sum_band     :     18.55s CPU      6.86s WALL (      36 calls)
     v_of_rho     :      6.66s CPU      5.79s WALL (      36 calls)
     newd         :      2.73s CPU      3.94s WALL (      36 calls)
     PAW_pot      :     10.13s CPU     10.21s WALL (      36 calls)
     mix_rho      :      3.33s CPU      1.67s WALL (      36 calls)

     Called by c_bands:
     init_us_2    :      0.40s CPU      0.23s WALL (      73 calls)
     cegterg      :     31.52s CPU     15.64s WALL (      36 calls)

     Called by sum_band:
     sum_band:bec :      0.00s CPU      0.00s WALL (      36 calls)
     addusdens    :      8.16s CPU      2.99s WALL (      36 calls)

     Called by *egterg:
     h_psi        :     24.39s CPU     12.88s WALL (     239 calls)
     s_psi        :      0.66s CPU      0.19s WALL (     239 calls)
     g_psi        :      0.23s CPU      0.08s WALL (     202 calls)
     cdiaghg      :      3.05s CPU      1.14s WALL (     237 calls)

     Called by h_psi:
     h_psi:pot    :     24.24s CPU     12.82s WALL (     239 calls)
     h_psi:calbec :      0.89s CPU      0.25s WALL (     239 calls)
     vloc_psi     :     22.37s CPU     12.25s WALL (     239 calls)
     add_vuspsi   :      0.98s CPU      0.32s WALL (     239 calls)

     General routines
     calbec       :      1.12s CPU      0.32s WALL (     275 calls)
     fft          :      5.78s CPU      3.70s WALL (     576 calls)
     ffts         :      0.56s CPU      0.29s WALL (      72 calls)
     fftw         :     26.07s CPU     13.36s WALL (    4456 calls)
     interpolate  :      1.73s CPU      0.95s WALL (      72 calls)
     davcio       :      0.00s CPU      0.00s WALL (       1 calls)

     Parallel routines
     fft_scatter  :      1.65s CPU      0.88s WALL (    5104 calls)

     PWSCF        :  1m15.58s CPU     0m46.63s WALL


   This run was terminated on:  16:37:59  18Oct2017            

=------------------------------------------------------------------------------=
   JOB DONE.
=------------------------------------------------------------------------------=
