#     FDE rho
    
  CRYSTAL 
    
  PRIMVEC    
  2.02300000699    2.02300000699    0.0    
  2.02300000699    0.0    2.02300000699    
  0.0    4.04600001398    4.04600001398    
  PRIMCOORD    
  2    1    
  Al    0.0    0.0    0.0    
  Al    0.0    2.02300000699    2.02300000699    
  BEGIN_BLOCK_DATAGRID_3D    
  3d_datagrid_from_pbcpy    
  BEGIN_DATAGRID_3D    
  37    37    73    
  0.0    0.0    0.0    
  2.02300000699    2.02300000699    0.0    
  2.02300000699    0.0    2.02300000699    
  0.0    4.04600001398    4.04600001398    
  0.002065513034    0.002347432565    0.003227762239    0.004791389216    0.007122341617    
  0.01023508376    0.01401192559    0.01817700995    0.02233082365    0.02604121949    
  0.02895417653    0.03087853186    0.03181792498    0.03194774189    0.03154968333    
  0.03092668835    0.03032911924    0.02991873839    0.0297746435    0.02991873805    
  0.03032911856    0.03092668737    0.03154968205    0.03194774035    0.03181792322    
  0.03087852998    0.02895417467    0.02604121776    0.02233082214    0.0181770087    
  0.01401192463    0.01023508311    0.007122341251    0.004791389073    0.003227762226    
  0.002347432587    0.002065513034    0.002347432665    0.002928873349    0.004153232976    
  0.006107779522    0.008844298032    0.01231139858    0.01630814609    0.02048823857    
  0.0244260061    0.02772197115    0.03010324909    0.03148142508    0.0319550464    
  0.03176311838    0.03120694321    0.03056750938    0.03004925262    0.02976717616    
  0.02976717596    0.03004925203    0.03056750844    0.03120694194    0.03176311678    
  0.03195504452    0.03148142295    0.03010324684    0.02772196891    0.02442600402    
  0.02048823676    0.01630814462    0.01231139748    0.008844297284    0.006107779079    
  0.004153232759    0.002928873269    0.002347432648    0.002347432665    0.003227762611    
  0.004153233246    0.005774115724    0.008151458004    0.01127487739    0.01500665745    
  0.01906288892    0.02305221529    0.02656486328    0.02927564952    0.03101953359    
  0.03181732548    0.03185069565    0.03139802851    0.03075236101    0.03015127084    
  0.02974445653    0.02960255906    0.0297444561    0.03015127001    0.03075235981    
  0.03139802695    0.03185069375    0.03181732326    0.03101953111    0.0292756469    
  0.02656486069    0.02305221291    0.0190628869    0.01500665584    0.0112748762    
  0.008151457197    0.005774115227    0.004153232979    0.0032277625    0.002928873533    
  0.003227762611    0.004791390058    0.006107780258    0.008151458464    0.01092757771    
  0.01434150385    0.01816642637    0.02205879697    0.02562584348    0.02852038101    
  0.03052382105    0.03158907967    0.0318357718    0.03150373058    0.03087948817    
  0.03022054672    0.02970642647    0.02943198234    0.02943198213    0.02970642583    
  0.03022054569    0.03087948675    0.03150372878    0.03183576962    0.03158907713    
  0.03052381822    0.02852037805    0.02562584061    0.02205879438    0.01816642421    
  0.01434150217    0.01092757649    0.008151457633    0.006107779741    0.004791389783    
  0.004153233456    0.004153233541    0.004791390058    0.007122343143    0.008844299434    
  0.01127487849    0.01434150447    0.01786104886    0.0215390028    0.02501597952    
  0.02794792277    0.03008743788    0.03133628509    0.0317563694    0.03154078943    
  0.03095390928    0.03025827399    0.02965517574    0.02926183625    0.02912698857    
  0.02926183584    0.02965517493    0.03025827277    0.03095390766    0.0315407874    
  0.03175636695    0.03133628225    0.03008743475    0.02794791954    0.02501597644    
  0.02153900008    0.01786104663    0.01434150277    0.01127487727    0.008844298615    
  0.007122342647    0.006107780428    0.005774116427    0.006107780661    0.007122343143    
  0.01023508616    0.01231140081    0.01500665932    0.01816642772    0.0215390035    
  0.02480482698    0.02764003936    0.02978989147    0.03112386032    0.0316567918    
  0.03153436841    0.03098810716    0.030271199    0.02959615117    0.02909890615    
  0.02884151241    0.02884151222    0.02909890557    0.0295961502    0.03027119762    
  0.03098810536    0.03153436616    0.03165678911    0.03112385723    0.02978988812    
  0.02764003594    0.02480482377    0.02153900071    0.01816642547    0.01500665764    
  0.01231139962    0.01023508538    0.008844299487    0.008151459221    0.008151459361    
  0.008844299921    0.01023508616    0.01401192897    0.01630814921    0.0190628916    
  0.02205879904    0.02501598089    0.02764004001    0.02968446547    0.03100339983    
  0.0315778819    0.03151137529    0.03099781192    0.03026926315    0.0295375612    
  0.02895127524    0.0285853282    0.02846247381    0.02858532784    0.02895127451    
  0.02953756007    0.0302692616    0.03099780994    0.03151137285    0.03157787902    
  0.03100339657    0.02968446197    0.0276400365    0.02501597763    0.02205879624    
  0.01906288937    0.01630814756    0.01401192783    0.01231140063    0.01127487917    
  0.01092757915    0.01127487951    0.01231140133    0.01401192897    0.01817701429    
  0.02048824252    0.02305221867    0.02562584617    0.0279479247    0.02978989267    
  0.03100340037    0.03154817458    0.03149378736    0.03099728895    0.03026218544    
  0.02948829626    0.02882829562    0.02836793724    0.02813656135    0.02813656118    
  0.02836793672    0.02882829472    0.02948829497    0.03026218373    0.03099728683    
  0.0314937848    0.0315481716    0.03100339703    0.02978988913    0.02794792119    
  0.02562584294    0.02305221592    0.02048824035    0.01817701269    0.01630814865    
  0.01500665975    0.0143415058    0.014341506    0.01500666036    0.01630814972    
  0.01817701429    0.02233082876    0.02442601067    0.02656486716    0.02852038412    
  0.0300874402    0.03112386189    0.03157788283    0.03149378777    0.03099602625    
  0.03025693931    0.02945570629    0.02873950175    0.02820007291    0.02787449797    
  0.02776682635    0.02787449764    0.02820007224    0.02873950071    0.02945570487    
  0.0302569375    0.03099602405    0.03149378517    0.03157787984    0.0311238586    
  0.03008743674    0.02852038072    0.02656486406    0.02442600804    0.02233082668    
  0.02048824146    0.01906289157    0.01816642869    0.01786105077    0.01816642916    
  0.01906289254    0.02048824296    0.02233082876    0.02604122507    0.02772197606    
  0.02927565366    0.03052382437    0.03133628762    0.03165679361    0.03151137648    
  0.03099728964    0.0302569396    0.02944434322    0.02869283513    0.02809312577    
  0.02768860599    0.02748821622    0.02748821607    0.02768860552    0.02809312497    
  0.02869283399    0.02944434173    0.03025693777    0.03099728745    0.03151137393    
  0.03165679073    0.03133628448    0.03052382112    0.02927565049    0.02772197318    
  0.02604122263    0.0244260091    0.02305221808    0.02205879947    0.02153900494    
  0.0215390052    0.02205880027    0.02305221943    0.02442601101    0.02604122507    
  0.02895418225    0.03010325406    0.03101953775    0.03158908302    0.03175637199    
  0.03153437033    0.03099781327    0.03026218632    0.0294557068    0.02869283534    
  0.02805628634    0.02759149712    0.02731350181    0.0272215722    0.02731350153    
  0.02759149655    0.02805628547    0.02869283416    0.02945570531    0.03026218452    
  0.03099781116    0.03153436792    0.0317563693    0.03158908014    0.03101953481    
  0.03010325122    0.02895417968    0.02772197414    0.02656486606    0.025625846    
  0.02501598171    0.02480482878    0.02501598227    0.02562584711    0.02656486771    
  0.02772197629    0.02895418225    0.03087853742    0.03148142987    0.03181732948    
  0.03183577503    0.03154079196    0.03098810909    0.03026926457    0.02948829726    
  0.0287395024    0.02809312614    0.02759149728    0.02725376173    0.02708496554    
  0.02708496542    0.02725376137    0.02759149666    0.02809312525    0.02873950123    
  0.02948829582    0.03026926287    0.03098810713    0.03154078975    0.03183577261    
  0.03181732693    0.03148142732    0.030878535    0.03010325203    0.02927565223    
  0.02852038345    0.0279479249    0.02764004114    0.02764004141    0.02794792571    
  0.02852038477    0.02927565401    0.03010325419    0.03087853742    0.03181793019    
  0.03195505087    0.03185069937    0.03150373361    0.03095391169    0.0302712009    
  0.02953756266    0.02882829669    0.02820007366    0.02768860647    0.02731350209    
  0.02708496567    0.02700822119    0.02708496547    0.02731350168    0.02768860583    
  0.02820007278    0.02882829557    0.0295375613    0.03027119932    0.0309539099    
  0.03150373163    0.03185069726    0.03195504871    0.03181792808    0.03148142796    
  0.03101953622    0.03052382339    0.03008743991    0.02978989318    0.02968446682    
  0.02978989366    0.03008744086    0.03052382475    0.03101953792    0.03148142991    
  0.03181793019    0.03194774663    0.03176312242    0.03139803189    0.03087949096    
  0.03025827627    0.02959615302    0.02895127671    0.02836793836    0.02787449879    
  0.0274882168    0.02722157258    0.02708496565    0.02708496557    0.02722157233    
  0.02748821636    0.02787449816    0.02836793751    0.02895127565    0.02959615177    
  0.03025827483    0.03087948937    0.03139803018    0.03176312066    0.03194774489    
  0.03195504918    0.031817328    0.03158908191    0.03133628701    0.0311238619    
  0.03100340108    0.03100340128    0.0311238625    0.03133628795    0.03158908314    
  0.03181732947    0.03195505082    0.03194774663    0.03154968755    0.03120694683    
  0.03075236407    0.0302205493    0.02965517791    0.02909890796    0.02858532968    
  0.02813656252    0.02776682725    0.02748821674    0.02731350201    0.0272537617    
  0.02731350187    0.02748821644    0.02776682679    0.02813656188    0.02858532886    
  0.02909890698    0.02965517677    0.03022054803    0.03075236269    0.03120694541    
  0.03154968615    0.03176312098    0.031850698    0.03183577388    0.03175637116    
  0.03165679323    0.03157788299    0.03154817536    0.03157788331    0.03165679383    
  0.03175637199    0.03183577491    0.0318506992    0.0317631223    0.03154968755    
  0.03092669208    0.03056751262    0.03015127363    0.02970642889    0.02926183834    
  0.0288415142    0.02846247531    0.0281365624    0.02787449861    0.02768860628    
  0.02759149712    0.02759149706    0.02768860608    0.02787449827    0.02813656191    
  0.02846247468    0.02884151343    0.02926183745    0.02970642789    0.03015127255    
  0.0305675115    0.03092669098    0.03120694559    0.03139803063    0.03150373243    
  0.03154079097    0.03153436962    0.03151137617    0.03149378794    0.03149378806    
  0.03151137651    0.03153437015    0.03154079165    0.03150373325    0.03139803156    
  0.03120694663    0.03092669208    0.03032912256    0.03004925556    0.02974445913    
  0.02943198466    0.02912699063    0.02884151401    0.02858532936    0.02836793799    
  0.02820007328    0.0280931258    0.02805628609    0.02809312567    0.02820007302    
  0.02836793761    0.02858532886    0.0288415134    0.02912698993    0.02943198389    
  0.02974445831    0.03004925469    0.0303291217    0.03056751154    0.03075236288    
  0.03087948976    0.03095391056    0.03098810812    0.03099781255    0.03099728927    
  0.03099602628    0.03099728943    0.03099781286    0.03098810854    0.03095391108    
  0.03087949038    0.0307523636    0.03056751235    0.03032912256    0.0299187414    
  0.0297671789    0.02960256155    0.02943198439    0.02926183787    0.02909890738    
  0.02895127608    0.02882829606    0.02873950182    0.02869283486    0.02869283479    
  0.02873950162    0.02882829574    0.02895127566    0.02909890689    0.02926183733    
  0.0294319838    0.02960256092    0.02976717825    0.02991874077    0.03004925463    
  0.03015127251    0.03022054807    0.03025827501    0.03027119969    0.0302692635    
  0.03026218547    0.03025693906    0.03025693911    0.03026218562    0.03026926374    
  0.0302712    0.03025827539    0.03022054852    0.03015127304    0.03004925523    
  0.0299187414    0.02977464628    0.02976717857    0.02974445853    0.02970642808    
  0.02965517699    0.02959615205    0.02953756171    0.02948829639    0.02945570604    
  0.02944434262    0.0294557059    0.02948829612    0.02953756135    0.02959615163    
  0.02965517653    0.0297064276    0.02974445803    0.02976717807    0.02977464581    
  0.02976717808    0.02974445805    0.02970642763    0.02965517655    0.02959615162    
  0.02953756131    0.02948829603    0.02945570577    0.02944434244    0.02945570581    
  0.02948829613    0.02953756145    0.02959615181    0.02965517679    0.02970642794    
  0.02974445843    0.02976717851    0.02977464628    0.02991874069    0.03004925456    
  0.03015127243    0.03022054798    0.03025827491    0.03027119958    0.03026926335    
  0.03026218524    0.03025693872    0.03025693864    0.03026218503    0.03026926303    
  0.0302711992    0.03025827449    0.03022054755    0.03015127201    0.03004925415    
  0.02991874031    0.02976717781    0.02960256049    0.02943198336    0.02926183687    
  0.0290989064    0.02895127512    0.02882829515    0.02873950096    0.02869283407    
  0.02869283407    0.02873950096    0.02882829516    0.02895127516    0.02909890647    
  0.029261837    0.02943198355    0.02960256074    0.02976717813    0.02991874069    
  0.03032912113    0.03056751098    0.03075236231    0.03087948917    0.03095390996    
  0.03098810749    0.03099781185    0.03099728845    0.03099602531    0.03099728829    
  0.03099781156    0.03098810711    0.03095390954    0.03087948874    0.03075236188    
  0.03056751058    0.03032912078    0.0300492538    0.02974445742    0.02943198301    
  0.02912698904    0.02884151248    0.02858532788    0.02836793655    0.02820007189    
  0.02809312445    0.02805628478    0.02809312441    0.02820007181    0.02836793646    
  0.0285853278    0.02884151245    0.02912698907    0.02943198312    0.02974445762    
  0.03004925407    0.03032912113    0.03092668997    0.0312069446    0.03139802964    
  0.03150373143    0.03154078994    0.03153436853    0.03151137495    0.03149378654    
  0.03149378644    0.03151137468    0.03153436813    0.03154078947    0.03150373093    
  0.03139802914    0.03120694414    0.03092668958    0.03056751014    0.03015127123    
  0.02970642658    0.02926183614    0.02884151211    0.0284624733    0.02813656045    
  0.02787449672    0.02768860443    0.02759149531    0.02759149527    0.02768860431    
  0.02787449655    0.02813656026    0.02846247313    0.02884151199    0.02926183611    
  0.02970642665    0.03015127142    0.03056751044    0.03092668997    0.03154968481    
  0.03176311967    0.03185069671    0.03183577256    0.03175636978    0.03165679173    
  0.03157788129    0.0315481734    0.03157788106    0.0316567913    0.03175636922    
  0.03183577194    0.03185069607    0.03176311907    0.03154968429    0.03120694361    
  0.03075236093    0.0302205463    0.02965517507    0.02909890528    0.02858532713    
  0.02813656008    0.02776682489    0.02748821443    0.02731349975    0.02725375946    
  0.02731349965    0.02748821424    0.02776682464    0.02813655981    0.02858532689    
  0.02909890511    0.02965517502    0.03022054639    0.03075236117    0.031206944    
  0.03154968481    0.03194774334    0.0319550477    0.03181732654    0.0315890804    
  0.03133628538    0.03112386006    0.03100339894    0.0310033988    0.03112385964    
  0.03133628474    0.03158907962    0.0318173257    0.03195504688    0.03194774262    
  0.03176311844    0.031398028    0.03087948724    0.03025827274    0.02959614971    
  0.0289512736    0.02836793542    0.02787449598    0.02748821408    0.02722156992    
  0.02708496303    0.02708496298    0.02722156976    0.02748821382    0.02787449567    
  0.0283679351    0.02895127333    0.02959614954    0.03025827272    0.03087948741    
  0.03139802837    0.031763119    0.03194774334    0.03181792649    0.03148142645    
  0.03101953471    0.03052382178    0.0300874381    0.02978989106    0.02968446432    
  0.02978989071    0.03008743744    0.03052382088    0.03101953367    0.03148142537    
  0.03181792549    0.03195504615    0.03185069474    0.03150372916    0.03095390747    
  0.03027119694    0.02953755896    0.02882829323    0.02820007039    0.02768860335    
  0.02731349907    0.02708496271    0.02700821829    0.0270849626    0.02731349885    
  0.02768860304    0.02820007004    0.02882829289    0.0295375587    0.03027119682    
  0.03095390755    0.03150372947    0.03185069531    0.03195504696    0.03181792649    
  0.03087853351    0.03010325061    0.02927565076    0.02852038181    0.02794792298    
  0.02764003883    0.02764003863    0.0279479224    0.0285203809    0.0292756496    
  0.03010324931    0.03087853223    0.03148142453    0.03181732416    0.03183576988    
  0.03154078706    0.0309881045    0.03026926029    0.02948829328    0.02873949868    
  0.02809312263    0.02759149393    0.0272537585    0.02708496239    0.02708496233    
  0.02725375833    0.02759149366    0.0280931223    0.02873949832    0.02948829297    
  0.03026926009    0.03098810448    0.0315407873    0.03183577042    0.03181732502    
  0.03148142566    0.03087853351    0.02895417837    0.02772197284    0.02656486466    
  0.02562584438    0.02501597976    0.0248048264    0.02501597936    0.02562584359    
  0.02656486354    0.02772197148    0.02895417691    0.03010324837    0.03101953193    
  0.03158907727    0.03175636647    0.03153436513    0.03099780843    0.03026218183    
  0.02945570264    0.02869283147    0.02805628269    0.02759149365    0.02731349846    
  0.02722156894    0.02731349834    0.02759149342    0.02805628238    0.02869283112    
  0.02945570231    0.03026218158    0.03099780834    0.03153436528    0.03175636694    
  0.03158907811    0.0310195331    0.03010324977    0.02895417837    0.0260412215    
  0.02442600793    0.02305221677    0.02205879791    0.02153900303    0.02153900284    
  0.02205879735    0.02305221584    0.02442600669    0.02604122004    0.02772197044    
  0.02927564766    0.03052381825    0.03133628163    0.03165678791    0.03151137116    
  0.03099728472    0.03025693506    0.02944433903    0.02869283123    0.02809312212    
  0.02768860251    0.02748821286    0.02748821279    0.02768860231    0.02809312182    
  0.02869283088    0.02944433868    0.03025693477    0.03099728456    0.03151137122    
  0.03165678829    0.0313362824    0.0305238194    0.02927564908    0.02772197197    
  0.0260412215    0.0223308257    0.0204882404    0.01906289037    0.01816642725    
  0.01786104899    0.01816642692    0.01906288972    0.02048823943    0.02233082445    
  0.02442600559    0.02656486145    0.02852037802    0.03008743401    0.03112385589    
  0.03157787716    0.03149378252    0.03099602142    0.03025693487    0.02945570222    
  0.02873949798    0.02820006938    0.02787449459    0.02776682308    0.02787449444    
  0.02820006909    0.02873949762    0.02945570183    0.03025693452    0.03099602116    
  0.03149378245    0.0315778774    0.03112385651    0.03008743503    0.02852037935    
  0.02656486293    0.02442600703    0.0223308257    0.01817701184    0.01630814773    
  0.01500665868    0.0143415045    0.01434150437    0.01500665828    0.01630814707    
  0.01817701091    0.02048823833    0.02305221369    0.02562584055    0.02794791872    
  0.02978988665    0.03100339457    0.03154816916    0.03149378238    0.03099728439    
  0.03026218127    0.02948829245    0.0288282921    0.02836793393    0.02813655817    
  0.02813655808    0.02836793368    0.02882829173    0.02948829202    0.03026218084    
  0.03099728402    0.03149378216    0.03154816921    0.03100339498    0.02978988746    
  0.02794791986    0.02562584187    0.02305221501    0.0204882395    0.01817701184    
  0.01401192715    0.01231139988    0.01127487827    0.01092757803    0.01127487806    
  0.01231139945    0.01401192652    0.01630814605    0.01906288763    0.0220587943    
  0.02501597556    0.02764003437    0.02968445985    0.03100339447    0.03157787693    
  0.03151137075    0.0309978078    0.0302692594    0.02953755778    0.02895127207    
  0.0285853252    0.02846247092    0.02858532501    0.02895127172    0.02953755732    
  0.03026925888    0.03099780729    0.03151137033    0.03157787673    0.0310033946    
  0.02968446036    0.02764003523    0.02501597662    0.0220587954    0.01906288864    
  0.01630814688    0.01401192715    0.0102350849    0.008844298929    0.008151458502    
  0.008151458407    0.008844298655    0.01023508448    0.01231139858    0.01500665642    
  0.01816642407    0.02153899914    0.02480482212    0.02764003428    0.02978988647    
  0.03112385561    0.03165678747    0.03153436448    0.03098810359    0.03027119576    
  0.0295961482    0.02909890339    0.02884150979    0.0288415097    0.0290989031    
  0.02959614776    0.0302711952    0.03098810297    0.03153436386    0.03165678699    
  0.03112385538    0.0297898866    0.02764003474    0.02480482282    0.02153899994    
  0.01816642483    0.01500665709    0.01231139914    0.0102350849    0.007122342375    
  0.006107780053    0.00577411588    0.006107779886    0.007122342077    0.008844297984    
  0.01127487654    0.01434150191    0.01786104563    0.02153899899    0.02501597532    
  0.02794791845    0.03008743369    0.03133628119    0.03175636584    0.0315407862    
  0.03095390634    0.03025827131    0.02965517328    0.02926183395    0.0291269864    
  0.02926183375    0.02965517289    0.03025827075    0.03095390565    0.03154078543    
  0.03175636509    0.0313362806    0.03008743338    0.02794791845    0.02501597558    
  0.02153899939    0.01786104608    0.01434150235    0.01127487695    0.008844298362    
  0.007122342375    0.004791389668    0.004153233224    0.004153233147    0.004791389462    
  0.006107779405    0.008151457274    0.01092757609    0.01434150171    0.0181664237    
  0.02205879386    0.02562584013    0.02852037763    0.03052381782    0.0315890767    
  0.03183576909    0.03150372812    0.03087948592    0.03022054466    0.02970642456    
  0.02943198057    0.02943198047    0.02970642425    0.03022054414    0.03087948521    
  0.03150372724    0.03183576813    0.03158907577    0.03052381706    0.02852037712    
  0.02562583988    0.0220587938    0.01816642375    0.01434150184    0.01092757629    
  0.008151457532    0.006107779675    0.004791389668    0.003227762466    0.002928873397    
  0.003227762347    0.004153232825    0.0057741151    0.008151457117    0.01127487617    
  0.01500665586    0.01906288697    0.02305221307    0.02656486094    0.02927564722    
  0.03101953143    0.03181732349    0.03185069384    0.03139802685    0.03075235948    
  0.03015126943    0.02974445524    0.02960255788    0.029744455    0.03015126896    
  0.03075235877    0.03139802591    0.03185069272    0.03181732228    0.03101953025    
  0.02927564619    0.02656486014    0.02305221248    0.01906288655    0.01500665559    
  0.01127487606    0.008151457162    0.005774115257    0.004153233008    0.003227762466    
  0.002347432635    0.002347432592    0.002928873203    0.004153232738    0.006107779165    
  0.008844297523    0.01231139789    0.0163081452    0.02048823751    0.02442600493    
  0.02772196995    0.03010324794    0.03148142401    0.03195504542    0.03176311748    
  0.03120694239    0.03056750862    0.03004925191    0.02976717553    0.02976717538    
  0.03004925148    0.03056750791    0.03120694141    0.03176311626    0.03195504401    
  0.03148142249    0.03010324644    0.02772196859    0.02442600377    0.02048823657    
  0.01630814447    0.01231139739    0.008844297261    0.006107779109    0.004153232808    
  0.0029288733    0.002347432635    0.002065513034    0.002347432565    0.003227762239    
  0.004791389216    0.007122341617    0.01023508376    0.01401192559    0.01817700995    
  0.02233082365    0.02604121949    0.02895417653    0.03087853186    0.03181792498    
  0.03194774189    0.03154968333    0.03092668835    0.03032911924    0.02991873839    
  0.0297746435    0.02991873805    0.03032911856    0.03092668737    0.03154968205    
  0.03194774035    0.03181792322    0.03087852998    0.02895417467    0.02604121776    
  0.02233082214    0.0181770087    0.01401192463    0.01023508311    0.007122341251    
  0.004791389073    0.003227762226    0.002347432587    0.002065513034    0.002347201939    
  0.002928703443    0.004153173289    0.006107860325    0.008844528418    0.01231176953    
  0.01630863646    0.02048882154    0.02442665459    0.02772266166    0.03010396369    
  0.03148215162    0.03195577759    0.03176385032    0.03120767432    0.0305682394    
  0.03004998193    0.02976790522    0.02976790503    0.03004998138    0.0305682385    
  0.03120767309    0.03176384879    0.03195577577    0.0314821496    0.03010396157    
  0.02772265958    0.02442665268    0.02048881988    0.01630863511    0.01231176851    
  0.00884452772    0.00610785992    0.0041531731    0.002928703379    0.002347201927    
  0.002347201939    0.002928703585    0.003843744009    0.005452693923    0.007823536625    
  0.01095328031    0.01470990994    0.01881127658    0.02286260336    0.02644631271    
  0.0292276409    0.03103316946    0.03187848198    0.03194368677    0.03150872555    
  0.03087022286    0.03027011282    0.02986206318    0.0297194336    0.02986206276    
  0.03027011201    0.03087022167    0.03150872401    0.0319436849    0.03187847981    
  0.03103316705    0.02922763839    0.02644631025    0.02286260112    0.01881127465    
  0.01470990841    0.01095327917    0.00782353585    0.005452693454    0.003843743764    
  0.002928703486    0.002633874621    0.002928703585    0.004153173746    0.005452694236    
  0.007485514394    0.01027034194    0.01372459763    0.01762766136    0.02163304359    
  0.0253358699    0.02837144843    0.03050387364    0.03167353294    0.03199436677    
  0.03170710503    0.03110400168    0.03045070906    0.0299349459    0.02965795744    
  0.02965795722    0.02993494524    0.030450708    0.03110400023    0.03170710321    
  0.03199436458    0.03167353041    0.03050387085    0.02837144555    0.02533586712    
  0.02163304109    0.01762765927    0.01372459598    0.01027034073    0.007485513577    
  0.005452693732    0.004153173481    0.003526623094    0.003526623175    0.004153173746    
  0.006107861291    0.00782353744    0.01027034243    0.01339251256    0.01701775047    
  0.02085120874    0.02452035582    0.02765864689    0.02999386641    0.03140760423    
  0.03195042907    0.031813751    0.03126815351    0.03058710534    0.02998394994    
  0.02958614292    0.02944904934    0.02958614248    0.02998394907    0.03058710407    
  0.03126815184    0.03181374892    0.03195042657    0.03140760136    0.02999386328    
  0.0276586437    0.02452035279    0.02085120607    0.01701774827    0.01339251087    
  0.01027034121    0.007823536617    0.006107860793    0.005105220612    0.004776992561    
  0.005105220844    0.006107861291    0.008844530087    0.0109532818    0.01372459877    
  0.01701775109    0.02058338912    0.02408971694    0.0271883531    0.02959482529    
  0.03115205593    0.03185763738    0.03185172404    0.03137104144    0.03068128285    
  0.0300101642    0.02950739127    0.02924478267    0.02924478247    0.02950739065    
  0.03001016317    0.0306812814    0.03137103956    0.03185172171    0.03185763461    
  0.03115205277    0.02959482189    0.02718834967    0.02408971373    0.02058338635    
  0.01701774886    0.01372459708    0.01095328061    0.0088445293    0.007446394125    
  0.00675468758    0.006754687723    0.007446394568    0.008844530087    0.01231177206    
  0.01470991223    0.01762766323    0.02085121005    0.02408971759    0.02702428134    
  0.02937650876    0.0309698383    0.03176309237    0.03184999955    0.03142753737    
  0.03074063639    0.03001865842    0.02942699621    0.02905309352    0.02892684115    
  0.02905309313    0.02942699543    0.03001865722    0.03074063476    0.03142753528    
  0.03184999699    0.03176308936    0.03096983491    0.02937650515    0.02702427776    
  0.0240897143    0.02085120725    0.01762766101    0.01470991058    0.01231177091    
  0.01055673332    0.009496345379    0.009142720545    0.009496345719    0.01055673403    
  0.01231177206    0.01630863989    0.01881127967    0.02163304617    0.02452035777    
  0.02718835436    0.02937650935    0.03090400483    0.03170511833    0.03183600765    
  0.0314540049    0.03077469198    0.03001675435    0.02935221916    0.02888177021    
  0.02864353023    0.02864353005    0.02888176967    0.02935221823    0.03001675299    
  0.03077469018    0.03145400264    0.03183600492    0.03170511515    0.0309040013    
  0.02937650564    0.02718835073    0.02452035447    0.0216330434    0.01881127749    
  0.0163086383    0.01431225879    0.01293645872    0.01223802275    0.01223802295    
  0.01293645932    0.01431225986    0.01630863989    0.02048882578    0.02286260713    
  0.02533587306    0.02765864934    0.02959482703    0.03096983936    0.0317051188    
  0.03182904182    0.03146365277    0.0307917142    0.03001145766    0.02929118182    
  0.02873970631    0.02840423411    0.02829295938    0.02840423377    0.02873970561    
  0.02929118073    0.03001145616    0.03079171227    0.03146365039    0.031829039    
  0.03170511556    0.0309698358    0.02959482334    0.02765864578    0.02533586984    
  0.02286260444    0.02048882368    0.01843477707    0.01686565115    0.01588732364    
  0.01555555434    0.0158873241    0.0168656521    0.01843477857    0.02048882578    
  0.02442665942    0.02644631694    0.02837145196    0.02999386919    0.03115205798    
  0.03176309375    0.03183600846    0.03146365312    0.03079683144    0.03000765029    