#     FDE rho
    
  CRYSTAL 
    
  PRIMVEC    
  2.71550001129    2.71550001129    0.0    
  2.71550001129    0.0    2.71550001129    
  0.0    2.71550001129    2.71550001129    
  PRIMCOORD    
  2    1    
  Si    0.0    0.0    0.0    
  Si    1.35775000564    1.35775000564    1.35775000564    
  BEGIN_BLOCK_DATAGRID_3D    
  3d_datagrid_from_pbcpy    
  BEGIN_DATAGRID_3D    
  49    49    49    
  0.0    0.0    0.0    
  2.71550001129    2.71550001129    0.0    
  2.71550001129    0.0    2.71550001129    
  0.0    2.71550001129    2.71550001129    
  0.006998271886    0.007946870063    0.01082214674    0.0156566133    0.02234155271    
  0.03046707198    0.03925058029    0.04762914991    0.05450051963    0.05901038189    
  0.06076579745    0.05990154063    0.05698864718    0.05282607441    0.04819668803    
  0.04368273502    0.03960171922    0.03605592416    0.0330351769    0.03050530156    
  0.02844784303    0.02685879891    0.0257347647    0.0250670514    0.02484588273    
  0.02506705134    0.02573476456    0.02685879871    0.0284478428    0.0305053013    
  0.03303517661    0.03605592383    0.03960171883    0.04368273458    0.04819668757    
  0.05282607399    0.05698864686    0.05990154043    0.06076579738    0.05901038189    
  0.05450051954    0.04762914953    0.03925057947    0.03046707079    0.0223415514    
  0.01565661219    0.01082214601    0.007946869724    0.006998271886    0.007946870282    
  0.01002830465    0.01421416563    0.02044413328    0.02841446623    0.03746090538    
  0.04658102002    0.05462279859    0.06056838122    0.06379171793    0.06419349489    
  0.06217673293    0.05848164903    0.05394338861    0.04926630718    0.04489857256    
  0.04103408105    0.03770174576    0.03487055753    0.03251544421    0.03063219238    
  0.02922458638    0.02829196673    0.02782835542    0.02782835538    0.02829196662    
  0.02922458621    0.03063219214    0.03251544392    0.03487055718    0.03770174532    
  0.0410340805    0.04489857189    0.04926630644    0.05394338785    0.05848164831    
  0.06217673227    0.06419349431    0.06379171741    0.06056838067    0.05462279782    
  0.04658101883    0.03746090372    0.02841446432    0.02044413148    0.01421416427    
  0.01002830386    0.007946870029    0.007946870282    0.0108221475    0.01421416622    
  0.01981304727    0.0273761748    0.03634074996    0.04579384753    0.0546008549    
  0.06165774981    0.06616253451    0.06779960952    0.06677910085    0.06372722093    
  0.05946962591    0.05478884686    0.05024902962    0.0461441845    0.04255811904    
  0.03947272138    0.03685659375    0.03470131873    0.03301601695    0.03181063762    
  0.03108835544    0.03084793973    0.03108835538    0.03181063749    0.03301601674    
  0.03470131844    0.03685659335    0.03947272086    0.04255811836    0.04614418365    
  0.05024902864    0.05478884578    0.05946962479    0.06372721981    0.06677909973    
  0.06779960841    0.06616253337    0.06165774851    0.05460085326    0.04579384539    
  0.03634074741    0.02737617218    0.01981304502    0.01421416466    0.01082214673    
  0.009691455639    0.0108221475    0.01565661519    0.02044413508    0.02737617603    
  0.03596165027    0.04537825669    0.05454891563    0.0623490498    0.06786583482    
  0.07060787716    0.07059510705    0.06830605741    0.06450260089    0.05999389983    
  0.05542959923    0.05119799306    0.04744658502    0.04417972294    0.04136216753    
  0.03897796304    0.037038257    0.03556440082    0.0345737182    0.03407619019    
  0.03407619017    0.03457371812    0.03556440066    0.03703825673    0.03897796263    
  0.04136216696    0.04417972217    0.04744658405    0.05119799189    0.0554295979    
  0.05999389839    0.06450259936    0.06830605579    0.07059510535    0.07060787539    
  0.06786583293    0.06234904764    0.05454891302    0.04537825358    0.03596164689    
  0.02737617284    0.02044413254    0.01565661359    0.01323097903    0.01323097957    
  0.01565661519    0.02234155649    0.02841446998    0.03634075314    0.04537825861    
  0.05452584718    0.0626853443    0.06889274051    0.07253130077    0.07345407579    
  0.07198056983    0.06876909195    0.06460524255    0.06018392819    0.05596855762    
  0.05216950632    0.04881982206    0.04588359658    0.0433348462    0.04118253189    
  0.03945825825    0.03819712808    0.0374277602    0.03716905069    0.03742776015    
  0.03819712796    0.03945825801    0.0411825315    0.04333484561    0.04588359578    
  0.04881982101    0.05216950504    0.05596855611    0.06018392649    0.06460524069    
  0.06876908992    0.07198056763    0.07345407343    0.07253129827    0.0688927378    
  0.06268534124    0.05452584365    0.04537825469    0.03634074916    0.02841446646    
  0.02234155391    0.01856444753    0.01728719521    0.01856444888    0.02234155649    
  0.03046707836    0.03746091174    0.04579385327    0.05454892005    0.06268534673    
  0.06923603114    0.07350891065    0.07522487467    0.07455141846    0.0720205654    
  0.0683524037    0.06424410297    0.06020539921    0.05649902176    0.0531876524    
  0.05023690093    0.04760863023    0.04530463388    0.0433635279    0.04183959272    
  0.04078631443    0.04024711322    0.0402471132    0.04078631435    0.04183959253    
  0.04336352755    0.04530463333    0.04760862945    0.05023689989    0.05318765108    
  0.05649902017    0.06020539736    0.06424410088    0.06835240137    0.07202056284    
  0.07455141566    0.07522487167    0.07350890746    0.06923602769    0.06268534291    
  0.05454891581    0.04579384881    0.0374609075    0.03046707488    0.02548115278    
  0.02290109683    0.02290109761    0.02548115505    0.03046707836    0.0392505898    
  0.04658102943    0.05460086356    0.06234905699    0.0688927456    0.07350891325    
  0.07582460805    0.07587461836    0.07405778479    0.07099886389    0.06735783933    
  0.06365753771    0.06019498286    0.05705781727    0.05421337466    0.05160910187    
  0.0492337907    0.04712744119    0.04536185258    0.04401890381    0.04317508764    
  0.04288677637    0.04317508759    0.04401890366    0.0453618523    0.04712744071    
  0.04923378998    0.05160910089    0.05421337338    0.05705781569    0.06019498097    
  0.06365753552    0.06735783686    0.07099886113    0.07405778175    0.07587461507    
  0.07582460454    0.07350890951    0.06889274158    0.06234905263    0.05460085894    
  0.04658102484    0.03925058572    0.0334337683    0.02972044811    0.02844705161    
  0.02972044975    0.03343377135    0.0392505898    0.04762916273    0.05462281114    
  0.06165776137    0.06786584471    0.07253130841    0.07522487973    0.0758746208    
  0.07475174666    0.07236893639    0.06931762093    0.06610135325    0.06302942364    
  0.0602054012    0.05759659755    0.05513368221    0.05278597682    0.05058669908    
  0.04861967373    0.04699469653    0.04582630371    0.04521293046    0.04521293044    
  0.04582630362    0.04699469632    0.04861967335    0.05058669848    0.05278597597    
  0.05513368106    0.05759659607    0.06020539938    0.06302942148    0.06610135076    
  0.06931761814    0.07236893331    0.07475174329    0.07587461717    0.07522487586    
  0.0725313043    0.06786584035    0.0616577568    0.05462280652    0.04762915842    
  0.04153816383    0.03706721353    0.0347092706    0.03470927142    0.03706721587    
  0.04153816737    0.04762916273    0.05450053555    0.06056839657    0.06616254858    
  0.07060788931    0.07345408554    0.07455142558    0.0740577893    0.0723689385    
  0.06998678674    0.06736850319    0.0648136674    0.0624306468    0.06018393215    
  0.05798564566    0.05577944229    0.05358156895    0.05147815369    0.04960139618    
  0.04810376507    0.04713171856    0.04679413777    0.04713171851    0.04810376493    
  0.04960139592    0.05147815323    0.05358156827    0.05577944133    0.05798564437    
  0.06018393052    0.0624306448    0.06481366504    0.06736850052    0.06998678378    
  0.07236893525    0.07405778578    0.0745514218    0.07345408152    0.07060788508    
  0.06616254418    0.06056839211    0.05450053128    0.04873598035    0.04401682643    
  0.04093579025    0.03986660104    0.04093579174    0.0440168292    0.04873598407    
  0.05450053555    0.05901040025    0.06379173536    0.06779962537    0.07059512078    
  0.0719805811    0.07202057408    0.07099887005    0.06931762478    0.06736850498    
  0.06542296245    0.06358352965    0.06180936815    0.05999390573    0.05805070049    
  0.05596833471    0.05382184018    0.05175474184    0.04995131852    0.04860565665    
  0.04788408597    0.04788408596    0.04860565659    0.04995131837    0.05175474155    
  0.0538218397    0.05596833398    0.05805069948    0.05999390437    0.06180936643    
  0.06358352756    0.06542296002    0.06736850227    0.06931762179    0.0709988668    
  0.07202057058    0.07198057735    0.07059511682    0.06779962126    0.06379173119    
  0.0590103962    0.05406125069    0.04960806223    0.04625713622    0.0444617422    
  0.04446174287    0.04625713815    0.04960806519    0.05406125435    0.05901040025    
  0.06076581725    0.06419351344    0.0667791176    0.06830607198    0.06876910412    
  0.06835241344    0.06735784674    0.06610135849    0.06481367068    0.06358353119    
  0.06236385632    0.06103176976    0.05946963366    0.05762946834    0.05556001452    
  0.05339999051    0.05135295363    0.04965338347    0.04852420725    0.04812787903    
  0.04852420724    0.04965338343    0.05135295351    0.05339999025    0.05556001407    
  0.05762946764    0.05946963266    0.06103176841    0.0623638546    0.06358352914    
  0.06481366832    0.06610135587    0.06735784387    0.06835241033    0.06876910079    
  0.06830606844    0.06677911391    0.06419350967    0.06076581355    0.05689545429    
  0.05309628346    0.04990415612    0.04778122326    0.04703735255    0.0477812244    
  0.04990415827    0.0530962864    0.05689545774    0.06076581725    0.05990156081    
  0.06217675165    0.06372723781    0.06450261568    0.06460525513    0.06424411336    
  0.06365754601    0.06302942997    0.06243065132    0.06180937101    0.06103177112    
  0.05995228896    0.05848165854    0.05662834079    0.05450711155    0.05232238517    
  0.05033496238    0.04881591116    0.04799164319    0.04799164321    0.0488159112    
  0.05033496241    0.05232238514    0.05450711138    0.05662834043    0.05848165792    
  0.05995228803    0.06103176985    0.0618093694    0.0624306494    0.06302942778    
  0.06365754358    0.06424411073    0.06460525231    0.06450261267    0.06372723466    
  0.06217674842    0.05990155759    0.05711132372    0.05414484855    0.05141146017    
  0.04931533544    0.04817835616    0.04817835665    0.04931533685    0.05141146235    
  0.05414485129    0.0571113268    0.05990156081    0.05698866684    0.05848166721    
  0.05946964235    0.05999391441    0.06018394084    0.06020540996    0.06019499177    
  0.06020540837    0.06018393767    0.0599939097    0.05946963619    0.05848165974    
  0.05698865826    0.05506281932    0.05288715729    0.05072848631    0.04889053612    
  0.04765433295    0.04721839032    0.04765433304    0.04889053627    0.05072848647    
  0.0528871574    0.05506281929    0.05698865803    0.05848165924    0.05946963539    
  0.05999390858    0.06018393624    0.06020540666    0.06019498984    0.06020540783    
  0.06018393855    0.05999391198    0.0594696398    0.05848166458    0.05698866419    
  0.05506282616    0.05288716488    0.05072849447    0.04889054477    0.04765434201    
  0.04721839975    0.04765434278    0.04889054623    0.05072849648    0.05288716725    
  0.05506282873    0.05698866684    0.05282609297    0.05394340582    0.05478886257    
  0.05542961336    0.05596857013    0.05649903266    0.05705782658    0.05759660533    
  0.05798565196    0.05805070537    0.05762947185    0.05662834301    0.05506282034    
  0.0530721413    0.05090451701    0.04887456919    0.04730149115    0.0464432153    
  0.04644321537    0.04730149137    0.04887456949    0.05090451734    0.05307214156    
  0.05506282047    0.05662834292    0.0576294715    0.05805070473    0.05798565103    
  0.05759660413    0.05705782515    0.05649903104    0.05596856837    0.05542961148    
  0.05478886061    0.0539434038    0.05282609093    0.05143538132    0.0498460141    
  0.04820295603    0.0467004694    0.0455468153    0.04491897602    0.04491897632    
  0.04554681616    0.04670047073    0.0482029577    0.049846016    0.05143538332    
  0.05282609297    0.04819670524    0.04926632325    0.05024904447    0.05119800661    
  0.05216951854    0.05318766326    0.05421338418    0.05513369041    0.05577944917    
  0.05596834028    0.05556001879    0.05450711457    0.05288715915    0.05090451785    
  0.04885835666    0.04708335542    0.04588011101    0.04545470051    0.04588011121    
  0.04708335579    0.04885835713    0.05090451833    0.05288715956    0.05450711483    
  0.05556001885    0.05596834009    0.05577944872    0.05513368971    0.05421338326    
  0.05318766216    0.0521695173    0.05119800526    0.05024904305    0.04926632179    
  0.04819670376    0.04701667181    0.04574535708    0.0444470654    0.04322623484    
  0.0422133239    0.04153927706    0.04130238505    0.04153927747    0.04221332468    
  0.04322623591    0.04444706668    0.04574535848    0.04701667328    0.04819670524    
  0.04368275082    0.04489858746    0.04614419843    0.04744659791    0.04881983386    
  0.05023691162    0.05160911143    0.05278598525    0.05358157621    0.05382184623    
  0.05339999533    0.05232238877    0.05072848876    0.04887457063    0.04708335602    
  0.04567519579    0.04490236294    0.04490236306    0.04567519614    0.04708335654    
  0.04887457123    0.05072848937    0.0523223893    0.05339999571    0.05382184643    
  0.05358157619    0.05278598501    0.05160911099    0.05023691101    0.04881983311    
  0.04744659706    0.0461441975    0.04489858648    0.04368274981    0.04247892907    
  0.04128944085    0.04013933781    0.03907648417    0.03816964395    0.03749987467    
  0.03714214387    0.03714214401    0.03749987506    0.03816964457    0.03907648495    
  0.0401393387    0.04128944181    0.04247893007    0.04368275082    0.03960173362    
  0.04103409477    0.04255813201    0.04417973509    0.04588360787    0.04760864061    
  0.04923380014    0.05058670754    0.0514781611    0.05175474813    0.05135295874    
  0.05033496629    0.0488905389    0.04730149292    0.04588011195    0.04490236327    
  0.04455463404    0.04490236353    0.04588011243    0.04730149357    0.04889053962    
  0.050334967    0.05135295937    0.05175474863    0.05147816144    0.0505867077    
  0.04923380013    0.04760864045    0.04588360758    0.04417973471    0.04255813155    
  0.04103409424    0.03960173304    0.03825500542    0.0369973735    0.03584216632    
  0.0348111426    0.03393571394    0.03325793798    0.0328250156    0.03267566968    
  0.03282501577    0.0332579383    0.03393571438    0.03481114313    0.0358421669    
  0.03699737411    0.03825500603    0.03960173362    0.0360559372    0.03770175831    
  0.03947273337    0.04136217889    0.04333485688    0.04530464384    0.04712745036    
  0.04861968205    0.04960140354    0.0499513248    0.0496533886    0.04881591511    
  0.04765433577    0.0464432171    0.04545470147    0.04490236341    0.04490236355    
  0.04545470186    0.0464432177    0.0476543365    0.0488159159    0.04965338938    
  0.04995132551    0.04960140414    0.04861968252    0.0471274507    0.04530464406    
  0.043334857    0.04136217893    0.03947273334    0.03770175821    0.03605593703    
  0.03453593159    0.03314818286    0.03190501684    0.03082037252    0.02990884769    
  0.02918907785    0.028685859    0.02842550579    0.02842550585    0.02868585917    
  0.0291890781    0.029908848    0.03082037285    0.03190501716    0.03314818315    
  0.03453593182    0.0360559372    0.03303518862    0.03487056892    0.03685660475    
  0.03897797358    0.04118254191    0.04336353734    0.04536186135    0.04699470451    
  0.04810377213    0.04860566266    0.04852421211    0.04799164687    0.04721839286    
  0.04644321688    0.04588011186    0.04567519616    0.04588011212    0.04644321737    
  0.04721839353    0.04799164766    0.04852421295    0.04860566349    0.0481037729    
  0.0469947052    0.04536186195    0.04336353785    0.04118254236    0.03897797397    
  0.03685660509    0.03487056922    0.03303518884    0.03135264868    0.02982793968    
  0.02847198495    0.02729676451    0.02631126311    0.02552299514    0.02494248505    
  0.02458451793    0.02446322468    0.02458451802    0.02494248521    0.02552299533    
  0.0263112633    0.02729676465    0.02847198501    0.02982793965    0.03135264854    
  0.03303518862    0.03050531204    0.0325154545    0.03470132877    0.03703826672    
  0.03945826757    0.04183960154    0.04401891201    0.04582631116    0.04713172509    
  0.04788409144    0.04812788333    0.0479916463    0.04765433496    0.04730149222    
  0.04708335576    0.04708335589    0.04730149259    0.04765433553    0.04799164703    
  0.04812788416    0.0478840923    0.04713172595    0.04582631198    0.04401891278    
  0.04183960227    0.03945826825    0.03703826738    0.03470132941    0.03251545512    
  0.03050531261    0.02867405641    0.02702242779    0.02555651455    0.0242851825    
  0.02321477527    0.02234790133    0.02168701555    0.02123816756    0.02101031625    
  0.0210103163    0.02123816767    0.02168701569    0.02234790145    0.02321477531    
  0.02428518244    0.02555651434    0.02702242743    0.02867405592    0.03050531204    
  0.02844785237    0.03063220164    0.03301602608    0.03556440973    0.03819713665    
  0.04078632254    0.04317509514    0.04521293718    0.04679414353    0.04788409061    
  0.04852421068    0.04881591338    0.04889053723    0.04887456935    0.04885835609    
  0.04887456958    0.04889053767    0.048815914    0.04852421143    0.04788409144    
  0.04679414439    0.04521293805    0.043175096    0.04078632339    0.03819713748    
  0.03556441056    0.03301602692    0.03063220249    0.02844785319    0.02646957747    
  0.02469495271    0.0231239528    0.02176004762    0.02060594965    0.01966086715    
  0.01892224751    0.01838968833    0.0180666696    0.01795821115    0.01806666967    
  0.01838968843    0.01892224759    0.01966086716    0.02060594954    0.02176004735    
  0.02312395234    0.02469495207    0.02646957671    0.02844785237    0.02685880722    
  0.02922459472    0.0318106459    0.0345737263    0.03742776798    0.04024712051    
  0.042886783    0.04521293623    0.04713172327    0.04860566017    0.04965338571    
  0.05033496336    0.05072848614    0.05090451588    0.05090451598    0.05072848644    
  0.05033496384    0.04965338635    0.04860566091    0.04713172409    0.04521293708    
  0.04288678388    0.0402471214    0.03742776888    0.03457372723    0.03181064685    
  0.0292245957    0.0268588082    0.02472507801    0.02282064363    0.0211408841    
  0.01968344838    0.01844617834    0.01742442298    0.01661151029    0.01600188564    
  0.01559372803    0.01538860023    0.01538860025    0.0155937281    0.0160018857    
  0.01661151031    0.0174244229    0.0184461781    0.01968344794    0.02114088346    
  0.02282064281    0.02472507708    0.02685880722    0.02573477213    0.02829197424    
  0.03108836291    0.03407619748    0.0371690576    0.04024711956    0.0431750932    
  0.04582630829    0.04810376847    0.04995132062    0.05135295437    0.05232238458    
  0.05288715552    0.05307213854    0.05288715569    0.05232238493    0.05135295486    
  0.04995132124    0.04810376919    0.04582630908    0.04317509404    0.04024712044    
  0.03716905852    0.03407619844    0.03108836391    0.02829197526    0.02573477316    
  0.02343315865    0.02138590465    0.0195861769    0.01802710926    0.01670164595    
  0.01560078871    0.01471376476    0.01403049953    0.01354428495    0.01325250725    
  0.01315513777    0.01325250728    0.013544285    0.01403049955    0.01471376472    
  0.01560078855    0.01670164562    0.01802710873    0.01958617617    0.02138590375    
  0.02343315765    0.02573477213    0.02506705805    0.02782836216    0.03084794642    
  0.03407619661    0.03742776613    0.04078631967    0.04401890811    0.04699469969    
  0.04960139802    0.05175474223    0.05339998943    0.05450710908    0.05506281564    
  0.05506281571    0.0545071093    0.05339998979    0.05175474273    0.04960139862    
  0.04699470038    0.04401890887    0.04078632048    0.03742776701    0.03407619754    
  0.03084794742    0.0278283632    0.02506705909    0.0225834411    0.02037809022    
  0.01844353173    0.01677004978    0.01534658708    0.01415990911    0.01319506167    
  0.01243768468    0.01187660635    0.01150499296    0.01131968908    0.0113196891    
  0.01150499298    0.01187660638    0.01243768468    0.01319506161    0.01415990893    
  0.01534658673    0.01677004923    0.01844353098    0.02037808931    0.02258344009    
  0.02506705805    0.02484588868    0.02782836142    0.03108836128    0.03457372366    
  0.03819713291    0.04183959668    0.04536185543    0.04861967524    0.05147815369    
  0.05382183861    0.05556001139    0.05662833624    0.0569886525    0.05662833635    
  0.05556001163    0.05382183898    0.05147815418    0.04861967583    0.04536185609    
  0.04183959741    0.03819713371    0.03457372453    0.03108836222    0.02782836241    
  0.0248458897    0.02216305704    0.0197821739    0.01769574393    0.01589229155    
  0.01435777611    0.01307528997    0.01202583817    0.01119082071    0.01055478272    
  0.0101068114    0.009840273508    0.009751771327    0.009840273534    0.01010681145    
  0.01055478277    0.01119082074    0.01202583814    0.01307528983    0.01435777579    
  0.01589229103    0.01769574321    0.01978217302    0.02216305606    0.02484588868    
  0.02506705667    0.02829197196    0.03181064257    0.03556440524    0.03945826185    
  0.04336353042    0.04712744236    0.05058669871    0.05358156691    0.05596833096    
  0.05762946297    0.05848165173    0.05848165178    0.05762946312    0.05596833123    
  0.0535815673    0.0505866992    0.04712744294    0.04336353106    0.03945826256    
  0.03556440602    0.03181064342    0.02829197288    0.02506705762    0.02216305636    
  0.01958522882    0.01732672487    0.0153748555    0.01371320034    0.01232176491    
  0.01117791062    0.01025894763    0.009545152229    0.009021508049    0.008677716444    
  0.008507377583    0.008507377605    0.008677716507    0.009021508142    0.009545152337    
  0.01025894773    0.01117791066    0.01232176483    0.01371320008    0.01537485503    
  0.01732672418    0.01958522798    0.02216305542    0.02506705667    0.0257347693    
  0.02922459082    0.03301602095    0.03703826026    0.04118253411    0.04530463478    
  0.04923379002    0.05278597439    0.05577943802    0.05805069442    0.05946962593    
  0.05995227983    0.05946962602    0.05805069461    0.05577943832    0.0527859748    
  0.04923379053    0.04530463536    0.04118253475    0.03703826095    0.0330160217    
  0.02922459163    0.02573477016    0.02258343903    0.01978217262    0.01732672426    
  0.01520402355    0.01339553802    0.01187840464    0.01062669224    0.009613972054    
  0.00881642031    0.008214867335    0.00779511605    0.007547287218    0.007465363415    
  0.007547287286    0.007795116178    0.008214867509    0.008816420511    0.009613972249    
  0.01062669237    0.01187840464    0.01339553782    0.01520402312    0.01732672362    
  0.01978217183    0.02258343816    0.0257347693    0.02685880282    0.03063219595    
  0.03470132166    0.038977965    0.04333484688    0.04760862934    0.05160909916    
  0.05513367756    0.05798563903    0.05999389722    0.0610317596    0.06103175964    
  0.05999389734    0.05798563925    0.0551336779    0.05160909961    0.04760862987    
  0.04333484746    0.03897796563    0.03470132234    0.03063219667    0.02685880358    
  0.0234331551    0.02037808759    0.01769574208    0.01537485432    0.01339553745    
  0.01173206097    0.01035514891    0.00923483017    0.008343502879    0.007658041532    
  0.007160292997    0.006836554376    0.006677231669    0.006677231716    0.006836554513    
  0.007160293209    0.007658041804    0.00834350319    0.009234830477    0.01035514915    
  0.01173206106    0.01339553732    0.01537485395    0.01769574151    0.02037808688    
  0.02343315434    0.02685880282    0.02844784619    0.03251544682    0.03685659549    
  0.04136216806    0.04588359557    0.05023689809    0.05421336978    0.05759659054    
  0.06018392305    0.06180935713    0.06236384369    0.0618093572    0.06018392321    
  0.0575965908    0.05421337016    0.05023689858    0.04588359613    0.04136216866    
  0.03685659613    0.03251544749    0.02844784687    0.0247250729    0.0213859006    
  0.01844352857    0.01589228915    0.01371319861    0.01187840354    0.01035514839    
  0.009109655652    0.008110549749    0.007330988327    0.006749102626    0.006347393219    
  0.006112349829    0.006035057178    0.006112349941    0.006347393433    0.006749102931    
  0.00733098871    0.008110550185    0.009109656086    0.01035514874    0.01187840371    
  0.01371319856    0.01589228886    0.01844352808    0.02138589998    0.02472507223    
  0.02844784619    0.03050530387    0.03487055907    0.0394727218    0.04417972189    
  0.0488198192    0.05318764745    0.05705781007    0.06020539172    0.06243063514    
  0.06358351607    0.0635835161    0.06243063524    0.06020539191    0.05705781038    
  0.05318764788    0.04881981972    0.04417972247    0.03947272243    0.03487055972    
  0.03050530452    0.02646957072    0.02282063808    0.01958617238    0.01677004611    
  0.01435777319    0.01232176268    0.01062669067    0.009234829212    0.008110549326    
  0.007223025425    0.006546780219    0.00606083054    0.005747936917    0.005595090771    
  0.005595090832    0.005747937097    0.006060830836    0.006546780627    0.007223025936    
  0.008110549906    0.009234829789    0.01062669114    0.01232176295    0.01435777322    
  0.0167700459    0.01958617197    0.02282063753    0.0264695701    0.03050530387    
  0.03303517825    0.0377017461    0.04255811801    0.04744658225    0.05216950148    
  0.05649901458    0.06019497322    0.06302941158    0.0648136531    0.06542294628    
  0.06481365315    0.0630294117    0.06019497345    0.05649901493    0.05216950194    
  0.04744658281    0.04255811863    0.03770174676    0.03303517891    0.02867404795    
  0.0246949456    0.02114087816    0.0180271043    0.01534658296    0.01307528661    
  0.01117790798    0.009613970117    0.008343501592    0.007330987588    0.006546779903    
  0.005966396856    0.005569289331    0.005338720585    0.005263241072    0.005338720711    
  0.005569289586    0.005966397248    0.00654678044    0.007330988256    0.008343502336    
  0.009613970839    0.01117790856    0.01307528696    0.01534658304    0.01802710413    
  0.02114087778    0.02469494506    0.02867404733    0.03303517825    0.03605592446    
  0.04103408009    0.0461441819    0.05119798845    0.05596855065    0.06020538966    
  0.06365752551    0.0661013385    0.0673684862    0.06736848622    0.06610133858    
  0.06365752568    0.06020538994    0.05596855105    0.05119798895    0.0461441825    
  0.04103408075    0.03605592515    0.0313526384    0.02702241902    0.02312394538    
  0.01968344209    0.01670164062    0.01415990461    0.01202583446    0.01025894469    
  0.008816418122    0.007658040013    0.006749101654    0.00606082998    0.005569289081    
  0.005254550433    0.005101413774    0.005101413839    0.005254550633    0.005569289432    
  0.006060830504    0.006749102357    0.007658040861    0.008816419024    0.01025894552    
  0.01202583509    0.01415990497    0.01670164068    0.01968344189    0.02312394497    
  0.02702241846    0.03135263775    0.03605592446    0.0396017184    0.04489857023    
  0.05024902538    0.05542959267    0.06018391898    0.06424409093    0.06735782446    
  0.06931760343    0.06998676704    0.06931760349    0.0673578246    0.06424409117    
  0.06018391933    0.05542959312    0.05024902593    0.04489857086    0.03960171909    
  0.03453591935    0.02982792912    0.02555650551    0.02176003991    0.01844617175    
  0.01560078308    0.0131950569    0.01119081677    0.009545149108    0.008214864985    
  0.007160291312    0.00634739206    0.005747936148    0.005338720114    0.005101413551    
  0.005023767551    0.005101413691    0.005338720412    0.005747936635    0.006347392757    
  0.007160292203    0.008214865995    0.009545150108    0.01119081762    0.01319505748    
  0.01560078336    0.01844617174    0.02176003965    0.02555650505    0.02982792851    
  0.03453591867    0.0396017184    0.04368273305    0.04926630343    0.05478884089    
  0.05999389123    0.06460523101    0.06835238908    0.07099884629    0.07236891615    
  0.0723689162    0.07099884642    0.06835238931    0.06460523134    0.05999389167    
  0.05478884142    0.04926630403    0.04368273371    0.03825499109    0.03314817032    
  0.02847197411    0.02428517321    0.02060594169    0.01742441615    0.01471375891    
  0.01243767973    0.01055477866    0.009021504826    0.007795113591    0.006836552555    
  0.0061123485    0.005595089808    0.005263240397    0.00510141341    0.005101413486    
  0.005263240638    0.005595090245    0.006112349162    0.006836553442    0.007795114644    
  0.009021505923    0.01055477965    0.01243768049    0.01471375936    0.0174244163    
  0.02060594157    0.02428517287    0.0284719736    0.03314816969    0.03825499041    
  0.04368273305    0.0481966849    0.05394338342    0.05946961818    0.06450259022    
  0.06876907806    0.07202054825    0.07405776459    0.07475172391    0.07405776471    