#     FDE rho
    
  CRYSTAL 
    
  PRIMVEC    
  1.67000000555    1.67000000555    0.0    
  1.67000000555    0.0    1.67000000555    
  0.0    1.67000000555    1.67000000555    
  PRIMCOORD    
  1    1    
  Si    0.0    0.0    0.0    
  BEGIN_BLOCK_DATAGRID_3D    
  3d_datagrid_from_pbcpy    
  BEGIN_DATAGRID_3D    
  31    31    31    
  0.0    0.0    0.0    
  1.67000000555    1.67000000555    0.0    
  1.67000000555    0.0    1.67000000555    
  0.0    1.67000000555    1.67000000555    
  0.007163036078    0.008063936252    0.01084870495    0.01569166548    0.02266978763    
  0.0315397621    0.04161124992    0.05181928421    0.06098575591    0.06814359701    
  0.07277964112    0.07492892783    0.07512711322    0.07424420987    0.07322500114    
  0.07279477877    0.07322500298    0.07424421357    0.07512711875    0.07492893504    
  0.07277964963    0.06814360613    0.06098576473    0.0518192919    0.04161125593    
  0.03153976632    0.02266979027    0.01569166692    0.01084870562    0.008063936486    
  0.007163036078    0.008063936952    0.009907946511    0.01373059789    0.01966679644    
  0.02763748784    0.03716609667    0.04735023925    0.05703946312    0.06514343194    
  0.07092294771    0.0741548119    0.07514797592    0.07463268021    0.07354500244    
  0.07274477263    0.07274477345    0.07354500489    0.07463268424    0.07514798145    
  0.07415481871    0.07092295532    0.06514343952    0.05703946971    0.04735024413    
  0.03716609961    0.02763748913    0.01966679666    0.01373059762    0.00990794619    
  0.008063936819    0.008063936952    0.01084870698    0.01373059921    0.0186667202    
  0.02565314718    0.03437577903    0.04411299929    0.05382192078    0.06239120172    
  0.06894107718    0.07303966672    0.07477693636    0.07470616988    0.07367875236    
  0.07259914484    0.07215401955    0.07259914624    0.07367875508    0.07470617385    
  0.07477694146    0.07303967267    0.06894108338    0.06239120725    0.0538219247    
  0.04411300112    0.03437577894    0.02565314586    0.01866671849    0.01373059778    
  0.01084870618    0.009907947045    0.01084870698    0.01569166951    0.01966679971    
  0.02565314905    0.03342710052    0.04241960819    0.05172918154    0.06030143286    
  0.06720190996    0.07185668791    0.07417272852    0.074524772    0.07363507377    
  0.07237371193    0.07151553817    0.07151553875    0.07237371359    0.07363507639    
  0.07452477548    0.07417273275    0.07185669257    0.06720191435    0.06030143601    
  0.05172918265    0.0424196071    0.03342709781    0.02565314571    0.01966679671    
  0.0156916675    0.013730599    0.0137305997    0.01569166951    0.02266979413    
  0.02763749339    0.03437578303    0.04241961023    0.05100447131    0.05917723741    
  0.06601878173    0.07088052377    0.07353530155    0.07420228707    0.07346274546    
  0.07210014114    0.07089627822    0.07042484643    0.07089627907    0.0721001427    
  0.07346274758    0.07420228969    0.07353530459    0.07088052686    0.0660187841    
  0.05917723814    0.05100446983    0.04241960672    0.03437577839    0.02763748879    
  0.02266979056    0.01966679824    0.0186667212    0.01966680015    0.02266979413    
  0.0315397711    0.03716610444    0.04411300526    0.05172918541    0.05917723921    
  0.06560012005    0.07033142093    0.0730585773    0.07387835581    0.07324217389    
  0.07182532809    0.07035797732    0.06945096435    0.06945096464    0.07035797811    
  0.07182532918    0.07324217518    0.0738783573    0.07305857892    0.07033142229    
  0.06560012038    0.05917723774    0.05172918186    0.04411300011    0.03716609876    
  0.03153976609    0.02763749049    0.02565314884    0.02565315002    0.02763749385    
  0.0315397711    0.041611261    0.04735024877    0.05382192827    0.06030143814    
  0.06601878492    0.07033142233    0.07288266562    0.07367909497    0.07306283032    
  0.0716025914    0.06994791994    0.06868455072    0.06821565732    0.06868455101    
  0.06994792034    0.07160259174    0.07306283056    0.07367909517    0.07288266572    
  0.07033142194    0.06601878339    0.06030143493    0.05382192336    0.04735024285    
  0.04161125517    0.03716610046    0.03437578166    0.03342710229    0.03437578417    
  0.03716610505    0.041611261    0.05181929668    0.05703947374    0.06239121016    
  0.06720191615    0.0708805279    0.07305857966    0.07367909594    0.07299432072    
  0.07147799843    0.06969422868    0.06817047869    0.06730342794    0.06730342797    
  0.06817047869    0.06969422845    0.07147799782    0.07299431977    0.07367909476    
  0.07305857821    0.07088052587    0.06720191308    0.06239120575    0.05703946822    
  0.05181929079    0.0473502444    0.04411300321    0.04241961112    0.04241961239    
  0.04411300678    0.04735024961    0.05181929668    0.06098576899    0.06514344299    
  0.068941086    0.07185669452    0.07353530614    0.07387835867    0.0730628318    
  0.07147799893    0.0696087603    0.0679164659    0.06675719926    0.06634699291    
  0.06675719909    0.06791646539    0.06960875925    0.07147799727    0.07306282961    
  0.07387835608    0.07353530319    0.07185669104    0.06894108174    0.06514343793    
  0.06098576347    0.0570394695    0.05382192604    0.05172918582    0.05100447476    
  0.0517291881    0.05382193019    0.05703947477    0.06098576899    0.06814361001    
  0.07092295862    0.07303967542    0.07417273507    0.07420229165    0.07324217675    
  0.07160259289    0.06969422922    0.06791646595    0.06657700989    0.06586508418    
  0.06586508401    0.0665770093    0.06791646476    0.06969422726    0.07160259013    
  0.07324217332    0.07420228771    0.07417273075    0.07303967073    0.07092295355    
  0.06814360471    0.0651434389    0.06239120787    0.0603014382    0.05917724198    
  0.05917724303    0.06030144115    0.06239121224    0.06514344405    0.06814361001    
  0.07277965346    0.07415482215    0.07477694446    0.074524778    0.07346274952    
  0.07182533046    0.06994792099    0.06817047886    0.06675719901    0.06586508392    
  0.06556218075    0.06586508339    0.06675719785    0.06817047689    0.06994791809    
  0.07182532664    0.07346274491    0.07452477283    0.07477693896    0.07415481651    
  0.07277964785    0.07092295422    0.06894108329    0.06720191557    0.06601878679    
  0.06560012449    0.06601878865    0.06720191903    0.0689410879    0.07092295952    
  0.07277965346    0.07492893897    0.07514798503    0.07470617689    0.07363507874    
  0.07210014425    0.07035797884    0.06868455104    0.06730342751    0.06634699217    
  0.06586508332    0.06586508298    0.06634699112    0.06730342564    0.06868454822    
  0.07035797499    0.07210013941    0.07363507309    0.0747061707    0.07514797862    
  0.07492893267    0.07415481695    0.07303967178    0.07185669282    0.07088052842    
  0.07033142521    0.07033142612    0.07088053104    0.07185669687    0.07303967692    
  0.07415482283    0.07492893897    0.07512712274    0.07463268777    0.07367875792    
  0.07237371557    0.07089628013    0.06945096486    0.06821565682    0.06730342689    
  0.06675719781    0.06657700812    0.06675719696    0.06730342515    0.06821565412    
  0.06945096113    0.07089627534    0.0723737098    0.07367875138    0.07463268079    
  0.07512711572    0.07514797889    0.07477693964    0.07417273195    0.07353530501    
  0.07305858068    0.0728826688    0.07305858249    0.07353530847    0.0741727368    
  0.07477694556    0.07514798555    0.07512712274    0.07424421748    0.07354500823    
  0.07259914879    0.07151554039    0.07042484714    0.06945096418    0.06868454974    
  0.06817047698    0.06791646355    0.06791646303    0.06817047543    0.06868454714    
  0.06945096053    0.07042484243    0.07151553466    0.07259914218    0.07354500099    
  0.07424421    0.07463268093    0.07470617109    0.07452477358    0.07420228891    
  0.07387835783    0.07367909709    0.07367909804    0.07387836061    0.07420229331    
  0.0745247793    0.0747061778    0.07463268823    0.07424421748    0.07322500679    
  0.07274477666    0.07215402195    0.07151553964    0.07089627869    0.07035797677    
  0.06994791836    0.06969422609    0.06960875677    0.06969422485    0.06994791591    
  0.07035797316    0.07089627397    0.07151553388    0.07215401529    0.0727447693    
  0.07322499906    0.07354500101    0.07367875152    0.07363507345    0.07346274559    
  0.07324217442    0.07306283121    0.0729943219    0.07306283318    0.07324217819    
  0.07346275089    0.07363507993    0.07367875881    0.07354500872    0.07322500679    
  0.07279478263    0.07274477589    0.07259914725    0.0723737133    0.07210014133    
  0.07182532698    0.07160258895    0.07147799465    0.07147799393    0.07160258681    
  0.07182532349    0.07210013658    0.07237370742    0.07259914041    0.07274476832    
  0.07279477465    0.07274476918    0.07259914206    0.07237370978    0.07210013959    
  0.07182532711    0.07160259101    0.07147799862    0.07147799965    0.07160259401    
  0.07182533182    0.07210014565    0.07237371685    0.07259914978    0.07274477721    
  0.07279478263    0.0732250053    0.07354500592    0.07367875483    0.07363507496    
  0.07346274517    0.07324217199    0.07306282677    0.07299431557    0.07306282518    
  0.07324216884    0.07346274056    0.07363506903    0.07367874776    0.073544998    
  0.0732249969    0.07274476801    0.07215401485    0.07151553421    0.07089627499    
  0.07035797483    0.06994791824    0.06969422781    0.06960876026    0.06969422991    
  0.06994792223    0.07035798038    0.07089628174    0.07151554185    0.07215402307    
  0.07274477652    0.0732250053    0.07424421453    0.07463268395    0.07470617233    
  0.07452477285    0.07420228614    0.07387835299    0.07367909026    0.07367908941    
  0.07387835045    0.07420228196    0.07452476713    0.07470616521    0.07463267572    
  0.07424420558    0.07354499747    0.07259913958    0.07151553293    0.07042484149    
  0.06945096032    0.06868454765    0.06817047666    0.06791646496    0.06791646606    
  0.06817047983    0.0686845526    0.06945096671    0.07042484901    0.07151554132    
  0.07259914855    0.07354500666    0.07424421453    0.07512711841    0.07514797986    
  0.07477693867    0.07417272894    0.07353529994    0.07305857359    0.07288265981    
  0.07305857183    0.07353529644    0.07417272373    0.07477693183    0.07514797159    
  0.07512710906    0.07463267494    0.07367874648    0.07237370589    0.07089627238    
  0.06945095903    0.06821565285    0.0673034247    0.06675719733    0.06657700926    
  0.06675719955    0.06730342894    0.06821565881    0.06945096641    0.07089628091    
  0.07237371529    0.07367875639    0.07463268486    0.07512711841    0.07492893344    
  0.07415481591    0.07303966882    0.07185668788    0.07088052149    0.07033141631    
  0.0703314154    0.07088051875    0.07185668335    0.07303966252    0.07415480795    
  0.07492892404    0.07514797057    0.07470616346    0.07363506686    0.07210013427    
  0.07035797092    0.06868454516    0.06730342354    0.06634698996    0.06586508275    
  0.0658650839    0.06634699335    0.06730342892    0.06868455227    0.0703579795    
  0.07210014403    0.07363507741    0.07470617425    0.07514798096    0.07492893344    
  0.072779647    0.07092295168    0.06894107896    0.06720190934    0.06601877857    
  0.06560011429    0.06601877663    0.06720190549    0.06894107326    0.07092294419    
  0.07277963786    0.07415480671    0.07477692965    0.07452476434    0.07346273751    
  0.07182532047    0.06994791316    0.06817047312    0.06675719519    0.0658650818    
  0.06556218015    0.06586508415    0.06675719977    0.06817047974    0.06994792158    
  0.0718253304    0.07346274852    0.07452477586    0.07477694099    0.0741548172    
  0.072779647    0.06814360293    0.06514343564    0.0623912029    0.06030143128    
  0.05917723295    0.05917723188    0.06030142812    0.06239119774    0.0651434286    
  0.06814359414    0.07092294276    0.07303965995    0.07417272038    0.07420227819    
  0.07324216502    0.07160258323    0.06969422177    0.06791646059    0.06657700637    
  0.06586508224    0.06586508344    0.06657700994    0.06791646643    0.06969422972    
  0.07160259303    0.07324217623    0.07420229022    0.07417273249    0.07303967144    
  0.07092295308    0.06814360293    0.06098576154    0.05703946617    0.05382192091    
  0.05172917854    0.05100446515    0.05172917622    0.05382191636    0.05703945956    
  0.06098575307    0.06514342698    0.06894107033    0.07185667949    0.07353529202    
  0.07387834585    0.07306282074    0.07147798998    0.06960875352    0.06791646111    
  0.06675719616    0.0663469912    0.06675719859    0.06791646595    0.06960876069    
  0.07147799929    0.07306283182    0.07387835808    0.07353530466    0.07185669181    
  0.06894108174    0.06514343707    0.06098576154    0.05181928915    0.04735024123    
  0.04411299802    0.04241960358    0.04241960236    0.04411299438    0.04735023528    
  0.05181928113    0.05703945779    0.0623911945    0.06720190117    0.07088051376    
  0.07305856654    0.07367908417    0.07299431071    0.07147799047    0.06969422279    
  0.0681704746    0.06730342531    0.06730342653    0.06817047828    0.06969422894    
  0.071477999    0.0729943213    0.07367909626    0.07305857941    0.07088052666    
  0.06720191348    0.06239120574    0.0570394676    0.05181928915    0.0416112538    
  0.03716609735    0.0343757764    0.03342709461    0.03437577398    0.03716609252    
  0.04161124665    0.04735023345    0.0538219129    0.06030142342    0.06601877113    
  0.07033140952    0.07288265387    0.07367908457    0.07306282166    0.07160258468    
  0.06994791507    0.06868454739    0.06821565519    0.06868454986    0.06994792005    
  0.07160259216    0.07306283144    0.0736790962    0.07288266665    0.07033142269    
  0.06601878404    0.06030143553    0.05382192377    0.04735024265    0.0416112538    
  0.03153976475    0.02763748737    0.02565314365    0.02565314255    0.027637484    
  0.03153975904    0.03716609077    0.04411299091    0.05172917135    0.05917722605    
  0.06560010795    0.07033140983    0.07305856725    0.07387834707    0.0732421668    
  0.07182532274    0.07035797354    0.0694509618    0.06945096302    0.07035797725    
  0.07182532899    0.07324217549    0.07387835789    0.07305857957    0.07033142292    
  0.06560012109    0.05917723865    0.0517291829    0.04411300091    0.03716609876    
  0.03153976475    0.02266978915    0.01966679525    0.01866671642    0.01966679336    
  0.02266978519    0.0276374825    0.03437577082    0.04241959767    0.0510044593    
  0.05917722641    0.06601877176    0.07088051472    0.07353529346    0.07420228022    
  0.07346274007    0.07210013721    0.07089627549    0.0704248446    0.0708962779    
  0.0721001421    0.07346274745    0.0742022899    0.07353530496    0.07088052732    
  0.06601878472    0.05917723907    0.05100447108    0.04241960802    0.03437577925    
  0.0276374887    0.02266978915    0.01569166614    0.01373059643    0.01373059571    
  0.01569166384    0.01966679223    0.02565314    0.03342709055    0.0424195982    
  0.05172917222    0.06030142447    0.06720190242    0.07185668112    0.07417272258    
  0.07452476713    0.07363507008    0.07237370932    0.07151553639    0.07151553754    
  0.07237371282    0.07363507599    0.07452477539    0.07417273287    0.07185669284    
  0.0672019148    0.06030143676    0.05172918376    0.04241960843    0.03342709899    
  0.02565314632    0.01966679643    0.01569166614    0.01084870509    0.009907945128    
  0.01084870403    0.013730595    0.01866671466    0.02565314059    0.03437577199    
  0.04411299245    0.05382191455    0.06239119619    0.06894107223    0.07303966231    
  0.07477693261    0.07470616691    0.0736787502    0.07259914335    0.07215401853    
  0.07259914554    0.07367875463    0.07470617362    0.07477694141    0.07303967276    
  0.06894108361    0.0623912077    0.05382192545    0.04411300213    0.03437577998    
  0.02565314664    0.01866671876    0.0137305974    0.01084870509    0.008063936168    
  0.008063935854    0.009907944826    0.0137305955    0.01966679337    0.02763748432    
  0.03716609306    0.04735023587    0.0570394601    0.06514342926    0.07092294532    
  0.07415480981    0.0751479742    0.07463267891    0.07354500152    0.072744772    
  0.07274477302    0.07354500458    0.07463268404    0.07514798136    0.07415481871    
  0.07092295539    0.0651434397    0.05703947005    0.04735024463    0.0371661002    
  0.02763748965    0.01966679698    0.01373059765    0.009907945896    0.008063936168    
  0.007163036078    0.008063936252    0.01084870495    0.01569166548    0.02266978763    
  0.0315397621    0.04161124992    0.05181928421    0.06098575591    0.06814359701    
  0.07277964112    0.07492892783    0.07512711322    0.07424420987    0.07322500114    
  0.07279477877    0.07322500298    0.07424421357    0.07512711875    0.07492893504    
  0.07277964963    0.06814360613    0.06098576473    0.0518192919    0.04161125593    
  0.03153976632    0.02266979027    0.01569166692    0.01084870562    0.008063936486    
  0.007163036078    0.008063936567    0.009907946013    0.01373059723    0.01966679568    
  0.02763748711    0.03716609616    0.04735023905    0.05703946318    0.06514343211    
  0.07092294784    0.07415481193    0.07514797589    0.07463268015    0.07354500237    
  0.07274477253    0.07274477327    0.07354500461    0.07463268385    0.07514798094    
  0.07415481807    0.07092295455    0.06514343867    0.05703946887    0.04735024336    
  0.03716609895    0.02763748858    0.01966679619    0.01373059721    0.009907945832    
  0.008063936477    0.008063936567    0.009907947007    0.01278129499    0.01772204126    
  0.02474772588    0.03356155058    0.04344671921    0.05334933584    0.06213460755    
  0.06889459151    0.07317256536    0.07504295098    0.07505579863    0.07407082726    
  0.0730073874    0.07256582452    0.07300738868    0.07407082976    0.07505580227    
  0.0750429556    0.07317257062    0.06889459682    0.06213461214    0.05334933902    
  0.04344672068    0.03356155054    0.02474772487    0.01772203992    0.01278129383    
  0.009907946353    0.008972114885    0.009907947007    0.01373059988    0.01772204289    
  0.02377884385    0.03171162009    0.04096816002    0.05063614299    0.05962421743    
  0.06694658741    0.07197877801    0.07459072892    0.07514166093    0.07436175779    
  0.07314668697    0.07230161754    0.07230161806    0.0731466885    0.0743617602    
  0.07514166411    0.07459073269    0.07197878198    0.06694659092    0.05962421969    
  0.05063614342    0.04096815863    0.03171161743    0.02377884077    0.0177220402    
  0.01373059809    0.0117721536    0.01177215422    0.01373059988    0.01966680054    
  0.02474772963    0.03171162213    0.04012041398    0.04920410537    0.05796804824    
  0.06542698112    0.07086085387    0.07398411178    0.07498366323    0.07444075446    
  0.07316795378    0.07199145634    0.07152400422    0.07199145712    0.07316795521    
  0.0744407564    0.07498366557    0.07398411435    0.07086085624    0.06542698257    
  0.05796804803    0.04920410313    0.04012041004    0.03171161737    0.02474772511    
  0.01966679713    0.01662052044    0.01561071004    0.01662052225    0.01966680054    
  0.02763749441    0.03356155654    0.04096816411    0.04920410736    0.05739056967    
  0.06459747922    0.07007348623    0.07343085725    0.07471787501    0.07437405101    
  0.07310022785    0.0716785179    0.07077619525    0.07077619551    0.0716785186    
  0.07310022882    0.07437405213    0.0747178762    0.07343085837    0.07007348681    
  0.06459747855    0.05739056711    0.04920410284    0.04096815825    0.03356155044    
  0.02763748922    0.02357083176    0.02151721214    0.02151721333    0.02357083518    
  0.02763749441    0.03716610564    0.04344672708    0.05063614881    0.0579680519    
  0.06459748088    0.06979051311    0.07310487276    0.07448635472    0.07425341144    
  0.07299234359    0.07140472045    0.07014359946    0.06966821619    0.0701435997    
  0.07140472076    0.0729923438    0.07425341148    0.0744863546    0.07310487232    
  0.06979051189    0.06459747825    0.05796804743    0.05063614268    0.04344672014    
  0.03716609909    0.03236008729    0.02936975684    0.02835785011    0.02936975955    
  0.03236009232    0.03716610564    0.04735025013    0.05334934506    0.05962422449    
  0.06542698598    0.07007348911    0.073104874    0.0743959722    0.0741664814    
  0.0728989643    0.07120416677    0.06967940829    0.06879046037    0.06879046038    
  0.06967940823    0.07120416642    0.07289896354    0.07416648023    0.07439597068    
  0.073104872    0.07007348622    0.06542698172    0.05962421868    0.05334933812    
  0.047350243    0.04229099338    0.03866611339    0.0367827848    0.03678278625    
  0.03866611753    0.04229099953    0.04735025013    0.05703947516    0.0621346175    
  0.06694659516    0.07086085947    0.07343086092    0.07448635678    0.07416648221    
  0.07286253219    0.07109887471    0.06940260688    0.06820262204    0.06777170117    
  0.06820262182    0.06940260628    0.07109887353    0.07286253035    0.07416647979    
  0.07448635386    0.07343085743    0.07086085513    0.06694658972    0.06213461102    
  0.05703946817    0.052308456    0.04850870047    0.04606113932    0.04521762393    
  0.04606114209    0.04850870555    0.05230846255    0.05703947516    0.06514344433    
  0.06889460165    0.07197878598    0.07398411766    0.074717879    0.07425341384    
  0.07289896547    0.07109887507    0.069311503    0.06791340641    0.06715440984    
  0.06715440965    0.06791340576    0.0693115017    0.07109887294    0.0728989625    
  0.07425341016    0.07471787474    0.07398411283    0.0719787805    0.0688945955    
  0.06514343774    0.06125794029    0.05778262099    0.0551853438    0.05380052138    
  0.05380052268    0.05518534748    0.05778262647    0.06125794674    0.06514344433    
  0.07092295975    0.0731725752    0.07459073664    0.07498366891    0.07437405484    
  0.07299234584    0.07120416781    0.06940260714    0.06791340635    0.06694958984    
  0.06661814084    0.06694958928    0.06791340511    0.06940260503    0.07120416471    
  0.07299234178    0.07437404998    0.07498366344    0.07459073071    0.07317256891    
  0.07092295328    0.06820163847    0.06545176079    0.0631134066    0.06155114511    
  0.06100293362    0.0615511474    0.06311341084    0.06545176639    0.06820164479    
  0.07092295975    0.07415482304    0.07504296004    0.07514166791    0.07444075945    
  0.07310023103    0.07140472211    0.06967940882    0.06820262188    0.06715440943    
  0.06661814053    0.06661814019    0.06715440836    0.06820261994    0.06967940586    
  0.07140471806    0.07310022595    0.07444075354    0.07514166143    0.07504295327    
  0.07415481624    0.07265271156    0.07083278952    0.06904679404    0.06763288842    
  0.06685428329    0.06685428435    0.06763289147    0.06904679873    0.07083279536    
  0.07265271808    0.07415482304    0.0751479857    0.07505580644    0.07436176359    
  0.07316795767    0.07167852009    0.07014360027    0.0687904602    0.06777170044    
  0.06715440877    0.06694958854    0.06715440795    0.06777169873    0.06879045748    
  0.07014359644    0.07167851513    0.07316795168    0.07436175681    0.07505579921    
  0.07514797838    0.07466314088    0.07374523069    0.0726240772    0.07156564692    
  0.07081515049    0.07054443141    0.07081515248    0.07156565072    0.07262408247    
  0.07374523703    0.0746631479    0.0751479857    0.07463268829    0.07407083349    
  0.07314669132    0.07199145893    0.07077619632    0.06966821609    0.06879045949    
  0.06820262052    0.06791340438    0.0679134039    0.06820261905    0.06879045699    
  0.0696682125    0.0707761916    0.07199145311    0.07314668455    0.07407082606    
  0.07463268058    0.07477282529    0.07451815714    0.07397826388    0.0733232413    
  0.07274467808    0.07240772568    0.07240772668    0.07274468101    0.07332324592    
  0.07397826987    0.07451816412    0.07477283285    0.07463268829    0.07354500865    
  0.07300739194    0.07230162039    0.07152400553    0.07077619554    0.07014359877    
  0.06967940667    0.06940260441    0.06931149979    0.06940260328    0.0696794044    
  0.07014359536    0.070776191    0.07152399989    0.07230161376    0.07300738454    
  0.0735450008    0.07384395884    0.07387663701    0.07366993945    0.07330608089    
  0.07290668972    0.07260084128    0.07248669613    0.0726008433    0.07290669359    
  0.07330608635    0.07366994613    0.07387664451    0.07384396673    0.07354500865    
  0.072744777    0.07256582747    0.07230161954    0.07199145728    0.0716785177    
  0.07140471907    0.0712041642    0.07109887101    0.07109887036    0.07120416224    
  0.07140471584    0.07167851327    0.07199145173    0.07230161298    0.0725658201    
  0.07274476912    0.07280653863    0.07273206174    0.07252445197    0.07221778766    
  0.07187704027    0.07158437788    0.07141546523    0.07141546627    0.0715843809    
  0.07187704503    0.07221779383    0.07252445916    0.07273206955    0.07280654666    
  0.072744777    0.07274477616    0.07300739023    0.07314668876    0.07316795432    
  0.07310022699    0.07299234125    0.07289896049    0.07286252698    0.07289895901    
  0.07299233835    0.07310022274    0.07316794881    0.07314668215    0.07300738277    
  0.07274476815    0.07237209176    0.0719136658    0.07140160536    0.07087688269    
  0.07038933495    0.06999225383    0.06973272884    0.06964252007    0.06973273091    
  0.06999225778    0.07038934047    0.0708768894    0.07140161291    0.07191367385    
  0.07237209997    0.07274477616    0.07354500611    0.07407083003    0.07436175927    
  0.07444075441    0.07437404926    0.07425340792    0.07416647614    0.07416647535    
  0.07425340556    0.07437404539    0.07444074911    0.07436175269    0.07407082242    
  0.07354499782    0.0728065365    0.07191366467    0.07094747225    0.06999854775    
  0.06915298753    0.06847865458    0.06801679511    0.06778420728    0.06778420834    
  0.06801679816    0.06847865937    0.06915299371    0.06999855497    0.07094748023    
  0.07191367311    0.07280654506    0.07354500611    0.07463268406    0.07505580126    
  0.07514166194    0.0749836624    0.07471787221    0.07448634994    0.07439596551    
  0.07448634831    0.07471786898    0.07498365759    0.07514165564    0.07505579367    
  0.07463267551    0.07384395448    0.0727320583    0.07140160298    0.06999854654    
  0.06867894612    0.06757407715    0.06676540028    0.06628226129    0.06612284557    
  0.06628226339    0.06676540428    0.06757408275    0.06867895301    0.06999855443    
  0.07140161162    0.07273206736    0.07384396353    0.07463268406    0.07514797985    
  0.07504295331    0.07459072932    0.07398411008    0.0734308534    0.07310486676    
  0.07310486594    0.07343085096    0.07398410601    0.07459072362    0.07504294608    
  0.07514797132    0.07477281867    0.07387663115    0.07252444711    0.070876879    
  0.06915298509    0.06757407597    0.06630973247    0.06545120286    0.06502361752    
  0.06502361859    0.06545120599    0.06630973743    0.06757408247    0.06915299288    
  0.07087688781    0.07252445661    0.07387664088    0.07477282808    0.07514797985    
  0.07415481577    0.07317256724    0.07197877771    0.07086085128    0.07007348129    
  0.06979050586    0.07007347966    0.07086084801    0.07197877278    0.07317256065    
  0.07415480764    0.07466313227    0.07451814894    0.07366993205    0.07221778137    
  0.07038932996    0.06847865096    0.06676539801    0.06545120183    0.06464107038    
  0.0643693623    0.06464107252    0.065451206    0.066765404    0.06847865853    
  0.07038933885    0.07221779121    0.07366994236    0.0745181591    0.07466314167    
  0.07415481577    0.07092295137    0.06889459282    0.0669465863    0.06542697747    
  0.064597473    0.06459747216    0.06542697495    0.06694658209    0.06889458694    
  0.07092294385    0.07265270155    0.07374522054    0.07397825412    0.073306072    
  0.07187703262    0.06999224765    0.06801679046    0.06628225812    0.06502361564    
  0.06436936148    0.06436936257    0.06502361887    0.06628226338    0.06801679759    
  0.06999225641    0.07187704263    0.07330608273    0.07397826491    0.07374523071    
  0.07265271056    0.07092295137    0.06514343513    0.06213460807    0.05962421524    
  0.05796804323    0.05739056183    0.05796804143    0.05962421168    0.06213460279    
  0.0651434282    0.06820162779    0.07083277808    0.07262406556    0.07332323009    
  0.07290667948    0.07158436906    0.06973272168    0.06778420183    0.06612284171    
  0.06502361609    0.06464107111    0.06502361828    0.06612284605    0.06778420826    
  0.06973273001    0.07158437896    0.07290669039    0.0733232413    0.07262407638    
  0.07083278792    0.06820163628    0.06514343513    0.05703946546    0.0533493353    
  0.05063613943    0.04920409873    0.04920409777    0.05063613656    0.0533493306    
  0.05703945903    0.06125792955    0.06545174872    0.06904678117    0.07156563389    
  0.0727446656    0.07260082995    0.07141545552    0.0696425122    0.06778420234    
  0.06628225909    0.0654512031    0.0654512042    0.06628226239    0.06778420785    
  0.06964251983    0.07141546499    0.07260084075    0.07274467701    0.07156564518    
  0.06904679173    0.06545175814    0.06125793756    0.05703946546    0.04735024036    
  0.04344671743    0.04096815504    0.04012040587    0.04096815307    0.04344671351    
  0.04735023456    0.05230844562    0.05778260884    0.06311339311    0.0676328742    