#     FDE rho
    
  CRYSTAL 
    
  PRIMVEC    
  4.02600001531    0.0    0.0    
  0.0    4.02600001531    0.0    
  0.0    0.0    4.02600001531    
  PRIMCOORD    
  2    1    
  Al    3.6911558387    2.60052278942    0.211853032525    
  Al    1.10299107373    0.0456381644815    3.88275710075    
  BEGIN_BLOCK_DATAGRID_3D    
  3d_datagrid_from_pbcpy    
  BEGIN_DATAGRID_3D    
  51    51    51    
  0.0    0.0    0.0    
  4.02600001531    0.0    0.0    
  0.0    4.02600001531    0.0    
  0.0    0.0    4.02600001531    
  0.03834769451    0.04072851039    0.04215683083    0.04205855173    0.04007956345    
  0.03634533867    0.03147269083    0.02629421368    0.02150846323    0.01749673641    
  0.01435559014    0.01202966632    0.01042380686    0.009454250191    0.009059272529    
  0.009198738374    0.009855656688    0.01103906312    0.01277976764    0.01510316222    
  0.01796478163    0.02116234319    0.02428822732    0.02680581373    0.02825743004    
  0.02847715875    0.02764364074    0.02614108598    0.02435686941    0.02255900984    
  0.02088886244    0.01941226048    0.01816417319    0.01716465469    0.01641964858    
  0.01592398109    0.0156694023    0.01565134131    0.0158707161    0.01633263167    
  0.01704462157    0.01801537503    0.01925468334    0.02077478236    0.02258966476    
  0.02470712022    0.02711501785    0.02977258949    0.03261180929    0.03553050631    
  0.03834769451    0.03536745009    0.03766134655    0.03907963268    0.03907935326    
  0.03732165641    0.03391647905    0.02943522229    0.02465400529    0.02022671594    
  0.01651299067    0.01360723161    0.01146148105    0.009989802477    0.00911663139    
  0.00878740741    0.008968321581    0.009647419849    0.01083688259    0.01256865109    
  0.01486783775    0.01768953459    0.02083245276    0.02389267137    0.02633985421    
  0.02772319506    0.02788143128    0.02699411433    0.02544336187    0.02361354777    
  0.02177052477    0.0200547594    0.01853184846    0.01723634485    0.01618733664    
  0.01538939643    0.01483589005    0.01451722534    0.0144276618    0.01456707892    
  0.01493959549    0.01555177467    0.01641140986    0.01752755299    0.01891188329    
  0.02057817794    0.02253498223    0.02477286283    0.02725620306    0.02992419899    
  0.03268386036    0.03536745009    0.03271234043    0.03495537741    0.03643320014    
  0.03663896922    0.035233165    0.03227526539    0.02825612809    0.02388106894    
  0.0197707464    0.01628793722    0.01354722001    0.01152031273    0.01013405618    
  0.009320601027    0.009031409351    0.009238279311    0.009933813399    0.01113218242    
  0.01286261333    0.01514068691    0.01790562778    0.02094040961    0.02383759621    
  0.02608517135    0.02726855372    0.02726239641    0.02626354123    0.02464894733    
  0.02278568445    0.02092288812    0.01919101165    0.01765148713    0.01633717071    
  0.01526571045    0.01444015994    0.01385264066    0.01349260494    0.01335330429    
  0.01343334616    0.01373547226    0.01426509989    0.0150292696    0.01603650328    
  0.01729793566    0.01882704934    0.02063334848    0.02271065439    0.02502892653    
  0.02753467478    0.03014538236    0.03271234043    0.03039456367    0.03261081615    
  0.03419490892    0.03468303794    0.03372804726    0.03131612021    0.02782953153    
  0.02388566095    0.02007371513    0.01677516857    0.01414303703    0.01218188648    
  0.01083776153    0.0100522101    0.00978218896    0.01000395207    0.01071328285    
  0.01192392546    0.01365698592    0.01590819346    0.0185864812    0.02144658392    
  0.0240766419    0.02599949828    0.02686517084    0.02660941129    0.0254559505    
  0.02377015331    0.02188813103    0.02003031478    0.01831025406    0.01678225764    
  0.01547617259    0.01440738249    0.013577088    0.01297649119    0.01259481    
  0.01242489869    0.01246430962    0.01271434348    0.01317920296    0.01386520552    
  0.01478032024    0.01593489817    0.01734177601    0.01901126792    0.02094061565    
  0.02310550066    0.02545961132    0.02793138002    0.03039456367    0.02840228425    
  0.03060209709    0.03231315111    0.033124021    0.03268414512    0.03089883096    
  0.02802266978    0.02456401673    0.02106925    0.01794130752    0.01538392354    
  0.013448407    0.0121100985    0.01132485167    0.01105609467    0.01128336251    
  0.01200304337    0.01322374583    0.01495024652    0.01714673604    0.01968033277    
  0.02227350977    0.02452005496    0.02600068192    0.02645507444    0.02589426154    
  0.0245674639    0.02281704679    0.02093574098    0.01910719769    0.01742455615    
  0.0159337644    0.01466080456    0.01361791196    0.01280394306    0.01220934358    
  0.01182368947    0.01164004474    0.0116552966    0.01186951369    0.01228584395    
  0.01291002264    0.01374947362    0.01481351514    0.01611388167    0.0176612774    
  0.01945618858    0.02147997942    0.02369327463    0.02603507915    0.02840228425    
  0.02671618812    0.02889645269    0.03072816369    0.03186212166    0.03195884063    
  0.03085246339    0.02866472483    0.02577469184    0.02266238065    0.01973889142    
  0.01725998834    0.01533445935    0.01397913489    0.01317266436    0.01288848876    
  0.01310884986    0.01382676399    0.01503824834    0.01672123931    0.01879787687    
  0.0210893391    0.02329472918    0.02503579504    0.02597723881    0.02596434442    
  0.02508226437    0.02359249203    0.02179962336    0.01994368369    0.01816831795    
  0.01654623277    0.01511538213    0.01389758822    0.01290133308    0.01212280762    
  0.01155181145    0.01117860484    0.01099678598    0.01100284669    0.01119587919    
  0.01157823991    0.01215531969    0.01293412748    0.0139228611    0.01513178571    
  0.01657145698    0.01824516577    0.02013976979    0.02222255725    0.02444203089    
  0.02671618812    0.02531599517    0.02746164894    0.02938267265    0.03079907163    
  0.03140271705    0.03098208246    0.0295395185    0.02731438567    0.0246916872    
  0.02206179121    0.01971765772    0.01782651256    0.01645628328    0.01561856125    
  0.01530278451    0.01549436856    0.01617821215    0.01732909359    0.01888883547    
  0.02073373825    0.02264775278    0.02432999479    0.02546002938    0.02580700629    
  0.02532157177    0.02414527844    0.02253039089    0.02072997503    0.01892756388    
  0.01722867101    0.0156882059    0.01433729256    0.01319355768    0.01226153813    
  0.01153490461    0.01100312551    0.01065735497    0.01049180938    0.01050268317    
  0.01068826687    0.01105032255    0.01159406747    0.0123262379    0.01325395734    
  0.01438579146    0.01573155147    0.01729661883    0.01907291577    0.02103409056    
  0.02313673584    0.02531599517    0.02418127413    0.02626877881    0.02822934188    
  0.02985284768    0.03088142395    0.03109232092    0.03040047777    0.0289137845    
  0.02690094554    0.02469509524    0.02259518295    0.02081205275    0.01946462955    
  0.01860408173    0.01824182945    0.01836792041    0.01895573435    0.01995335597    
  0.02126472364    0.02272930944    0.02411744609    0.02516100731    0.02562379946    
  0.02538386444    0.02447752625    0.02307285263    0.02139031774    0.01962379324    
  0.01790356134    0.01630315908    0.01486363008    0.01361031541    0.01255652933    
  0.01170305301    0.01104170813    0.01056224949    0.01025696428    0.01012069655    
  0.01014938968    0.01034065354    0.01069571806    0.01121959573    0.01191874746    
  0.01279927948    0.01386791938    0.01513309148    0.01660124901    0.01826857903    
  0.0201147035    0.02210303516    0.02418127413    0.02329331622    0.02529591284    
  0.02723849415    0.02897347844    0.03030360309    0.03102749388    0.03101544877    
  0.03027304098    0.02895101386    0.02729583066    0.02557360517    0.02400837794    
  0.02275483082    0.02190037397    0.02148015072    0.02149063689    0.02189459837    
  0.02261662256    0.02353389711    0.02447235634    0.02522148739    0.0255758048    
  0.02539385538    0.02464594824    0.02341972622    0.02187752972    0.02019243584    
  0.01850061539    0.01688861258    0.01540646645    0.0140851886    0.01294479828    
  0.01199409376    0.01123064395    0.01064544818    0.01022928807    0.009975787406    
  0.009880399741    0.00993889716    0.01014834288    0.01050939382    0.01102661382    
  0.01170598652    0.01255260436    0.01357130363    0.01476851138    0.01615050326    
  0.01771650404    0.01945153544    0.02132501784    0.02329331622    0.02263803167    
  0.02453068088    0.02640107607    0.02815013659    0.02963944654    0.03070971164    
  0.03122712491    0.03113709548    0.03049395117    0.02944869335    0.02820364505    
  0.02695987434    0.02587967817    0.02507086358    0.02458661431    0.02443091158    
  0.02456257509    0.02489653892    0.02530626937    0.02563460439    0.02571922262    
  0.02543112448    0.02471244351    0.02359327452    0.02217555186    0.02059219119    
  0.01896508331    0.01738262013    0.01590035351    0.01455311424    0.01336466136    
  0.01234971633    0.0115126182    0.01084863944    0.01034905215    0.01000619227    
  0.009814972132    0.009771316183    0.009870911377    0.01011044    0.0104899102    
  0.01101307136    0.01168508712    0.01251000209    0.01349083858    0.01463159829    
  0.01593710075    0.01740801947    0.01903385862    0.02078964688    0.02263803167    
  0.02220680423    0.02396839316    0.02572264055    0.02740236917    0.0289160396    
  0.03015106463    0.03099623565    0.0313774611    0.03128868257    0.03080022596    
  0.03004028977    0.02916037449    0.02830080662    0.02756704354    0.02701850309    
  0.0266661858    0.02647503705    0.02636973061    0.02624550902    0.02598657263    
  0.02549175239    0.02470134846    0.023614064    0.02228458946    0.02080208219    
  0.01926105403    0.01773958314    0.01629256113    0.01495660152    0.01375739698    
  0.01271293751    0.01183274758    0.01111737969    0.01056102142    0.01015607844    
  0.009896498046    0.009778059766    0.009796850934    0.009948526034    0.010229569    
  0.0106392809    0.01118020947    0.01185628437    0.01267042332    0.01362402539    
  0.01471852196    0.01595620673    0.01733743308    0.01885479593    0.0204885602    
  0.02220680423    0.02199600337    0.02360832512    0.02521335711    0.02676161136    
  0.02819227855    0.02943130406    0.0303990397    0.03102897692    0.03129006213    
  0.03120062614    0.03082605778    0.0302615026    0.029607792    0.02894948952    
  0.02834014716    0.02779577001    0.02729556242    0.02678905594    0.02620912267    
  0.02548967317    0.02458457942    0.02348184898    0.02220702196    0.02081396898    
  0.01936787022    0.01792920389    0.01654558301    0.01525197032    0.0140745212    
  0.01303295888    0.01214012503    0.01140096771    0.01081353763    0.01037215614    
  0.01007075958    0.009904490848    0.009869350987    0.009961246749    0.0101758547    
  0.01050963598    0.01096113857    0.01153132766    0.01222240652    0.01303593686    
  0.01397184467    0.01502908542    0.01620674672    0.01750319807    0.01891229767    
  0.02041872946    0.02199600337    0.02200782834    0.02345340711    0.02488325552    
  0.02625701866    0.02753084005    0.02865596642    0.02958005193    0.03025457822    
  0.03064705141    0.03075207461    0.03059499365    0.03022575839    0.02970561935    
  0.02909192469    0.02842584578    0.02772579453    0.02698726777    0.02618852008    
  0.02530059068    0.02429930329    0.02317585573    0.02194229098    0.02062963668    
  0.01927986231    0.01793605519    0.01663569297    0.0154089824    0.0142803714    
  0.01326980771    0.01239207097    0.01165534827    0.01106121753    0.01060670981    
  0.01028711536    0.01009778486    0.01003443105    0.0100927501    0.01026830493    
  0.01055687885    0.01095499105    0.01146030825    0.01207178961    0.01278929722    
  0.01361254101    0.01453988709    0.01556800395    0.01669257528    0.01790878087    
  0.01920978687    0.02058319876    0.02200782834    0.0222508275    0.02351253152    
  0.02474453035    0.02591286098    0.02698291182    0.02792023032    0.02869071362    
  0.02926271992    0.02961212939    0.02972849731    0.02961882077    0.02930637683    
  0.0288246848    0.02820899858    0.02748856851    0.02668216504    0.02579778028    
  0.02483591887    0.02379500051    0.02267710039    0.02149225619    0.02025987054    
  0.01900670171    0.0177625422    0.0165559372    0.0154119594    0.01435217452    
  0.01339516411    0.01255601591    0.01184489188    0.01126622366    0.01081969501    
  0.01050247073    0.01031104764    0.01024174731    0.01029037051    0.01045215236    
  0.01072236017    0.01109685393    0.01157199504    0.01214421575    0.01280998068    
  0.01356614463    0.01440986232    0.01533756588    0.01634379372    0.01742110479    
  0.01856104577    0.01975451736    0.02099007072    0.0222508275    0.02273504367    
  0.02379860456    0.02481318221    0.0257518103    0.02658716284    0.02729368505    
  0.02784848755    0.02823199305    0.02842952623    0.02843386233    0.02824741259    
  0.02788242451    0.02735853674    0.02669852997    0.02592411707    0.02505347425    
  0.02410109898    0.02307934225    0.02200044397    0.02087820426    0.01972895213    
  0.01857170219    0.01742744163    0.01631775647    0.01526340063    0.01428338814    
  0.01339458213    0.01261120268    0.01194391252    0.01139897568    0.01097839081    
  0.01068123943    0.01050537623    0.01044827761    0.01050678319    0.01067662032    
  0.01095267458    0.01132988734    0.01180374755    0.0123697529    0.01302248768    
  0.01375550177    0.01456219681    0.01543656127    0.01637259246    0.01736275718    
  0.01839708908    0.01946388632    0.02055106419    0.02164626364    0.02273504367    
  0.02346181019    0.02431929322    0.02510312059    0.02579419452    0.02637326551    
  0.02682290677    0.02712880898    0.02728031458    0.0272707964    0.02709839167    
  0.02676692234    0.02628624123    0.02567131143    0.02494007706    0.02411104349    
  0.02320171213    0.02222837541    0.02120682039    0.02015304998    0.01908349528    
  0.01801484877    0.01696390278    0.01594751115    0.01498246615    0.01408508288    
  0.01327050697    0.01255190183    0.01193966563    0.01144086259    0.01105915786    
  0.01079546273    0.01064906757    0.01061858835    0.01070213086    0.01089677751    
  0.01119816435    0.01160077908    0.0120987366    0.01268613658    0.01335650556    
  0.01410192145    0.01491293035    0.0157795649    0.01669245944    0.01764276573    
  0.0186207757    0.01961458423    0.02061015582    0.02159270369    0.02254792327    
  0.02346181019    0.02441621769    0.02506725382    0.02561611307    0.02605106547    
  0.02636146179    0.02653875403    0.0265774225    0.02647533247    0.02623357945    
  0.02585627604    0.02535064629    0.02472731362    0.02400024852    0.02318592066    
  0.02230178249    0.02136480033    0.02039077981    0.01939464327    0.01839113129    
  0.01739522481    0.01642200649    0.01548622641    0.01460198979    0.01378268878    
  0.01304094432    0.01238827491    0.01183447568    0.01138698957    0.01105063095    
  0.01082784829    0.01071941206    0.01072515679    0.01084434546    0.01107544826    
  0.01141554699    0.01185988365    0.01240195111    0.01303401335    0.01374751517    
  0.01453298187    0.01537963378    0.01627537151    0.01720746795    0.01816348699    
  0.01913152809    0.02009943278    0.02105361275    0.02197861215    0.022857905    
  0.02367534867    0.02441621769    0.02556798355    0.02601833913    0.02633693285    
  0.02651791871    0.02655849516    0.02645895724    0.02622293866    0.02585737749    
  0.02537187596    0.02477764292    0.02408664368    0.02331148955    0.02246596111    
  0.02156540811    0.02062627012    0.01966474123    0.01869548039    0.01773135319    
  0.01678431758    0.0158665577    0.01499082209    0.01416976009    0.01341498344    
  0.01273667833    0.0121438702    0.01164475579    0.01124656297    0.01095502139    
  0.01077399267    0.01070565429    0.01075108756    0.01091075151    0.01118442938    
  0.01157064429    0.01206589322    0.0126641318    0.01335677082    0.01413315319    
  0.0149812259    0.01588805409    0.01684001255    0.01782280635    0.0188216228    
  0.01982151543    0.02080774129    0.02176564511    0.02268004243    0.02353461519    
  0.02431202579    0.02499501007    0.02556798355    0.02687192602    0.02713424769    
  0.02723556815    0.02717461458    0.0269554207    0.02658642202    0.02607990151    
  0.02545162168    0.02471999115    0.02390438863    0.02302315547    0.02209241597    
  0.02112647905    0.02013928183    0.0191453708    0.01815937554    0.01719449361    
  0.01626157205    0.01536976536    0.01452809598    0.01374633648    0.01303443178    
  0.01240124    0.01185395957    0.01139868944    0.01104129922    0.01078757874    
  0.01064257904    0.01060996498    0.01069207739    0.01089050563    0.01120635623    
  0.0116396928    0.01218841602    0.01284730529    0.01360771803    0.01445792972    
  0.01538382599    0.01636970968    0.01739907921    0.01845521817    0.01952146997    
  0.0205812776    0.02161824097    0.02261629162    0.02355971839    0.02443270267    
  0.02521850759    0.02589908362    0.02645588289    0.02687192602    0.02824995544    
  0.02835378569    0.02826549104    0.02798702417    0.0275291138    0.02690873476    
  0.02614692061    0.02526769905    0.02429749573    0.02326370943    0.02219207648    
  0.02110408066    0.02001622635    0.0189416337    0.01789238755    0.01688052827    
  0.01591715974    0.01501115773    0.01416919964    0.01339716331    0.01270138194    
  0.01208855087    0.01156472994    0.01113483987    0.01080326641    0.01057476006    
  0.01045450486    0.01044730053    0.01055685012    0.01078589483    0.01113674464    
  0.011611094    0.01220868901    0.01292564477    0.01375361475    0.01468020286    
  0.01568995331    0.01676508276    0.01788585768    0.01903117987    0.0201797708    
  0.02131165456    0.02240926428    0.02345773382    0.02444433278    0.02535714511    
  0.02618316784    0.02690638659    0.02750688996    0.02796205746    0.02824995544    
  0.02955214527    0.02956419998    0.02934658604    0.02890032015    0.02824244895    
  0.02740085345    0.02640832214    0.02529886377    0.02410676853    0.02286639538    
  0.02161045829    0.02036684415    0.01915624348    0.01799261248    0.01688598222    
  0.01584513109    0.01487823499    0.01399195277    0.01319081573    0.01247793011    
  0.01185625027    0.01132918166    0.01090033447    0.01057327163    0.01035180006    
  0.01024034794    0.01024373424    0.01036646709    0.01061239092    0.01098498861    
  0.01148750738    0.01212185038    0.01288637058    0.01377403447    0.01477228572    
  0.01586434866    0.01703040211    0.01824755073    0.01948933087    0.02072659937    
  0.02193077854    0.02307838341    0.02415446563    0.02515308127    0.02607444895    
  0.02691982902    0.02768577617    0.02835955345    0.02891738423    0.02932667476    
  0.02955214527    0.03052949969    0.03057206151    0.03034009281    0.02982250909    
  0.0290378994    0.0280269718    0.02684036423    0.02552842161    0.02413693041    
  0.02270763803    0.02127920631    0.01988561479    0.01855299914    0.01729816372    
  0.01613046933    0.01505557385    0.01407814617    0.01320225817    0.01243055773    
  0.01176400462    0.01120273025    0.01074726381    0.01039926991    0.01016164467    
  0.01003823928    0.01003339954    0.01015147798    0.01039665097    0.01077321723    
  0.01128582674    0.01193858807    0.01273269534    0.01366372708    0.01472043503    
  0.0158855886    0.01713735548    0.01844917159    0.01978808837    0.02111429859    
  0.02238494381    0.02356249027    0.02462417666    0.02556753405    0.02640889301    
  0.0271753507    0.02789327449    0.02857700778    0.02922071496    0.02979531587    
  0.03025159242    0.03052949969    0.03086991814    0.03111569326    0.03104480988    
  0.03061381132    0.02982840243    0.02873773067    0.02741555144    0.02593883003    
  0.02437429411    0.02277610964    0.02118969408    0.0196543691    0.01820187026    
  0.01685343183    0.01561964963    0.01450410227    0.01350797098    0.01263245698    
  0.01187843111    0.01124528781    0.01073105037    0.01033394609    0.01005410684    
  0.009894057294    0.009857826211    0.009949643963    0.01017340259    0.0105332557    
  0.01103449263    0.01168314804    0.0124835441    0.01343477423    0.01452834484    
  0.01574824085    0.01707209097    0.01847059593    0.01990424063    0.02132043805    
  0.02265656044    0.02385168781    0.02486366578    0.02568324535    0.02633783285    
  0.02688300412    0.02738580529    0.02790613139    0.02848108539    0.02911466046    
  0.02977351789    0.03038950671    0.03086991814    0.03031554872    0.03094567577    
  0.03124248848    0.03110476326    0.03049930643    0.02946669581    0.02810097978    
  0.02651491124    0.02480995343    0.02306378558    0.02133379928    0.01966543026    
  0.01809570023    0.01665107024    0.01534521846    0.01418130895    0.01315771717    
  0.01227270795    0.01152528319    0.0109135728    0.01043407425    0.01008324611    
  0.009859962389    0.009766390122    0.009806628335    0.009984791842    0.01030463642    
  0.01077091616    0.01139039582    0.01217023237    0.01311378653    0.01421659546    
  0.01546522594    0.01683844966    0.01830680506    0.01982747594    0.02133715825    
  0.02275124505    0.02397682526    0.02493832457    0.02560435678    0.026001459    
  0.02620778228    0.02633116222    0.02648234287    0.02675248167    0.02719830998    
  0.02783373757    0.02862563968    0.02949349544    0.03031554872    0.02880395562    
  0.02994411645    0.03078587885    0.03115051055    0.03093392292    0.03013695605    
  0.02885634425    0.02724095389    0.0254397722    0.02356933932    0.02170952413    
  0.01991594957    0.0182313639    0.01668768195    0.0153030487    0.01408207233    
  0.01302152487    0.01211697434    0.01136536948    0.01076359942    0.01030702366    
  0.009990804458    0.009812785756    0.009774691871    0.009880527848    0.01013438922    
  0.01054039034    0.01110448914    0.01183503498    0.01273953333    0.01381906367    
  0.01506460753    0.0164573989    0.01796976822    0.01956027967    0.02116227147    
  0.02267505786    0.02397197996    0.02493149625    0.02548020626    0.02562450963    
  0.02545275272    0.02510850443    0.02475157435    0.02452492334    0.02453582235    
  0.02484902944    0.02548501797    0.02641740575    0.02756807372    0.02880395562    
  0.02652963741    0.02820426802    0.02968001202    0.03069844208    0.03105913449    
  0.03068486343    0.0296418558    0.02810047935    0.0262620451    0.02429684014    
  0.02232136503    0.0204093005    0.01861139718    0.01696527698    0.01549439751    
  0.0142065006    0.01309824498    0.01216308335    0.01139582061    0.01079201535    
  0.01034616015    0.01005257392    0.009908324683    0.009914614151    0.0100751824    
  0.01039419301    0.01087650241    0.01152952397    0.01236277744    0.01338303098    
  0.01458805181    0.015963978    0.01748646121    0.01911859735    0.02079889514    
  0.02242391409    0.02384367928    0.02488807622    0.02542268004    0.02540623516    
  0.02491437649    0.0241156736    0.02321772482    0.02241484595    0.02185812823    
  0.02164906344    0.02184588952    0.02247061098    0.02350905739    0.02490180053    
  0.02652963741    0.02387244816    0.026008915    0.02810033406    0.02982794573    
  0.03088813106    0.03109334478    0.03043816919    0.02908501282    0.02727967266    
  0.02525528737    0.02317934862    0.02115416187    0.01924294355    0.01748991309    
  0.01592434665    0.01455844193    0.01339026403    0.01241200057    0.01161642147    
  0.01099768281    0.01054960866    0.01026607823    0.01014364001    0.01018291743    
  0.01038722207    0.01076080133    0.01130939499    0.01204169725    0.01296757887    
  0.01409195402    0.01540871904    0.01689938347    0.01853339405    0.02026017531    
  0.02198838269    0.02356593358    0.02478837455    0.02545297451    0.02544074079    
  0.02477726106    0.02363086877    0.0222511769    0.0208901156    0.0197478356    
  0.0189573718    0.01859623981    0.01870595781    0.01930607875    0.02039659149    
  0.02194682743    0.02387244816    0.02124638688    0.02372324821    0.02633508296    
  0.02873591848    0.03053340184    0.03141485039    0.03126681092    0.03020691019    
  0.02850582076    0.02645978981    0.02429823966    0.02216312292    0.02013616403    
  0.01826996182    0.01660004792    0.01514398055    0.01390254323    0.01286759982    
  0.0120301603    0.01138294457    0.0109191965    0.01063260472    0.01051935919    
  0.01057944465    0.01081561603    0.01123219607    0.01183579435    0.01263598763    
  0.01364209398    0.01485627947    0.01626838545    0.01785552083    0.01957959766    
  0.02137112671    0.02310011249    0.0245590164    0.025493225    0.02568856231    
  0.02507381644    0.02376831248    0.02203878605    0.02019804297    0.0185122988    
  0.01715981507    0.01623810975    0.01579315916    0.01584745106    0.01641673678    
  0.01751357333    0.01913694252    0.02124638688    0.01897391379    0.02167818979    
  0.02469336442    0.02767900405    0.03018150655    0.03176804418    0.03219599343    
  0.03150529417    0.02996647671    0.02793105519    0.0256956027    0.02345063239    
  0.0213025774    0.01931479815    0.01752960086    0.01597044109    0.01464177968    
  0.01353601307    0.01264275325    0.01195328202    0.01146021803    0.01115707904    
  0.01103967369    0.01110722656    0.01136182839    0.01180787482    0.01245279915    
  0.01330670552    0.01437771845    0.01566478657    0.01715373919    0.01881719785    
  0.0206076929    0.02243226086    0.02411716439    0.02539987645    0.02598819538    
  0.02568102131    0.02448020773    0.0226088304    0.02041928273    0.01825963757    
  0.01638256655    0.01492757339    0.01395211639    0.0134734072    0.01349887853    
  0.01404151796    0.01512325908    0.01676715975    0.01897391379    0.01724547942    
  0.02010820214    0.02343409679    0.02690934108    0.03004663173    0.03231111338    
  0.0333283323    0.03304092159    0.03169746109    0.02969266516    0.02738937093    
  0.02503135188    0.02275435524    0.0206347685    0.01872225543    0.0170464552    
  0.01561610551    0.01442483071    0.01346127206    0.01271536415    0.012179008    
  0.01184539605    0.01170975688    0.01177033339    0.01202838066    0.01248826935    
  0.01315813354    0.01404837008    0.01516569523    0.01650590981    0.01805111239    
  0.01976919625    0.02160174299    0.02343004151    0.02503678397    0.02611165343    
  0.02634094267    0.02555599142    0.02384221237    0.02151864885    0.01899993823    
  0.01664331521    0.01467135782    0.01318134898    0.0121961755    0.01171246538    
  0.01172893252    0.01225804268    0.01332841417    0.01497995122    0.01724547942    
  0.01614904264    0.019152472    0.02274179444    0.02663540943    0.03033002491    
  0.03320990438    0.03478090149    0.03488591559    0.03373987752    0.03176922541    
  0.02939722998    0.02692031332    0.02450510816    0.02224240289    0.02018975737    
  0.01838316703    0.01683596581    0.01554353152    0.01449402955    0.01367631043    
  0.0130815644    0.01270249539    0.01253351263    0.01257161688    0.01281695023    
  0.01327353006    0.01394981409    0.01485621273    0.01599811387    0.0173687042    
  0.01894698064    0.02069625712    0.02254698126    0.02435592042    0.02586768945    
  0.0267354352    0.02663781886    0.0254467719    0.02332547536    0.02066915377    
  0.0179307608    0.01546057418    0.01344783298    0.011954075    0.01097750515    
  0.0105028215    0.01052566155    0.01106035646    0.01214100618    0.01381882253    
  0.01614904264    0.01572239056    0.01889007159    0.02274013757    0.0270155001    
  0.03120100225    0.03461642878    0.03666848885    0.03711397521    0.03613569377    
  0.03418460685    0.03173550756    0.02913160591    0.02656832274    0.02415084684    
  0.02194501269    0.01999329769    0.01831370531    0.01690366173    0.01575132201    
  0.01484483518    0.01417481976    0.01373343686    0.0135141688    0.01351265695    
  0.0137276929    0.01416245136    0.01482504092    0.01572538039    0.01686759605    
  0.01824295243    0.01982827808    0.0215832947    0.02342933012    0.02520383284    
  0.02662319986    0.02731634922    0.02696206425    0.02546812218    0.0230567108    
  0.02017480566    0.0172959768    0.01475937825    0.01272797482    0.0112389071    
  0.01027570302    0.009817799804    0.009861603509    0.01042526816    0.01154844967    
  0.01329072684    0.01572239056    0.01599523068    0.01937838206    0.02352029892    
  0.0281711791    0.03279552601    0.03665750392    0.03908902665    0.03978726286    
  0.03891727376    0.03695304836    0.03441043776    0.03166914301    0.02894777891    
  0.02636445755    0.02399339106    0.02188355424    0.02005738311    0.01851429147    
  0.01724266606    0.016230236    0.01546713522    0.01494493882    0.01465624294    
  0.01459550057    0.01476022471    0.01515244355    0.01577925608    0.01664947402    
  0.01776585108    0.01911822191    0.02068217203    0.02241556894    0.02423482132    
  0.02596681133    0.02731270556    0.02788890337    0.02737540099    0.02570041035    
  0.02311819312    0.02010298316    0.01713875996    0.01455877635    0.01251287047    
  0.01102661297    0.01007743866    0.009644061265    0.009725897386    0.01034621338    