#     vt_rhotot
    
  CRYSTAL 
    
  PRIMVEC    
  4.02600001531    0.0    0.0    
  0.0    4.02600001531    0.0    
  0.0    0.0    4.02600001531    
  PRIMCOORD    
  2    1    
  Al    3.6911558387    2.60052278942    0.211853032525    
  Al    1.10299107373    0.0456381644815    3.88275710075    
  BEGIN_BLOCK_DATAGRID_3D    
  3d_datagrid_from_pbcpy    
  BEGIN_DATAGRID_3D    
  51    51    51    
  0.0    0.0    0.0    
  4.02600001531    0.0    0.0    
  0.0    4.02600001531    0.0    
  0.0    0.0    4.02600001531    
  1.144773918    1.220099015    1.281314455    1.288806064    1.210245179    
  1.067084117    0.8964607885    0.7289300785    0.5810065526    0.4571979186    
  0.3555100457    0.2639448703    0.1790180266    0.1036005689    0.05712104674    
  0.07241620845    0.1394172143    0.2276658056    0.3137404328    0.4100599805    
  0.5263065776    0.6562919849    0.8017763437    0.9333159697    1.030389443    
  1.054997879    0.9876979062    0.9148148681    0.8557987899    0.7955653932    
  0.7468797542    0.7003762596    0.6597547124    0.6240824375    0.5993160578    
  0.581678225    0.5720642426    0.5705497469    0.5758479815    0.5892143566    
  0.6095152767    0.6370688151    0.6702811681    0.7098246927    0.7554460342    
  0.808756736    0.8680799069    0.9325761988    0.9995561594    1.068988001    
  1.144773918    1.079673047    1.153743077    1.218689383    1.231612477    
  1.155891119    1.016399767    0.8492850047    0.6866290017    0.5443073706    
  0.4234879166    0.3223913064    0.2292677362    0.1434038985    0.06369945747    
  0.0171840131    0.05262464664    0.1323291946    0.2182110086    0.3084009029    
  0.4038973861    0.518391017    0.6487340294    0.7930867473    0.9252814796    
  1.020556568    1.039769315    0.9719168065    0.8981054257    0.8368513346    
  0.7770111082    0.725158412    0.6769347512    0.6355149994    0.5984677608    
  0.5705569189    0.5499098769    0.5381702317    0.533128009    0.536226639    
  0.5476285644    0.5656680261    0.5907475884    0.6214606152    0.658672709    
  0.7018570955    0.7528391331    0.8102967364    0.8723175537    0.9369672786    
  1.005400581    1.079673047    1.019328353    1.093184917    1.161002727    
  1.186631828    1.12161118    0.9893050543    0.8306436846    0.6718112493    
  0.5330195043    0.4139480918    0.3156186014    0.2306261709    0.1482972143    
  0.08528598964    0.06187767011    0.09004490402    0.1603392708    0.2400708852    
  0.3222373865    0.4179614934    0.5300101704    0.6604357151    0.8007720301    
  0.9312616892    1.017083329    1.01545531    0.9500543046    0.8787240475    
  0.8143028431    0.7554029266    0.7028963185    0.6551855027    0.6110186898    
  0.5730573671    0.5437433679    0.5212755667    0.5074626875    0.5003096445    
  0.5017157065    0.5103765602    0.526790961    0.5500721934    0.5790515677    
  0.6143114774    0.6556019584    0.7038174204    0.7587272149    0.8177688931    
  0.8809012077    0.9474977614    1.019328353    0.9655922775    1.037866538    
  1.106079592    1.150280135    1.103666268    0.9821931269    0.836437935    
  0.6833238527    0.5489236233    0.435862474    0.3406050817    0.2652664859    
  0.2016669406    0.1546372007    0.1442031189    0.1656988777    0.2155189259    
  0.2801852348    0.3561528608    0.4515500365    0.5606987721    0.6906153397    
  0.821727631    0.9465715743    1.019738467    0.9876566803    0.9206046179    
  0.8559322593    0.7893318953    0.7323799181    0.6801536534    0.6317118762    
  0.5874774364    0.5500734185    0.5194717303    0.4954955317    0.4789893586    
  0.4700702096    0.4701982095    0.4777817134    0.4934603742    0.514781468    
  0.5426541117    0.5756043694    0.6150241309    0.6608804727    0.713983939    
  0.77123501    0.8320990333    0.895953339    0.9655922775    0.9168961232    
  0.9878160031    1.055320272    1.112993903    1.094676868    0.9960497968    
  0.8660624012    0.7246468108    0.5939067982    0.4837050802    0.3958654564    
  0.3236434746    0.2765901671    0.2435270423    0.2310827343    0.2488821137    
  0.2835370476    0.3379977616    0.4125705335    0.5031786126    0.6113609822    
  0.7390209064    0.860708782    0.970151338    1.017382589    0.9625196464    
  0.891269873    0.8276604714    0.7623815345    0.7082179071    0.6561784155    
  0.6085570331    0.5662227158    0.5283292959    0.49669472    0.4725900749    
  0.4547930165    0.444047608    0.4423094243    0.448836498    0.463609897    
  0.4841078919    0.5118121321    0.5433358319    0.5815854903    0.6251352625    
  0.6757080438    0.7306641488    0.7891249414    0.8512742281    0.9168961232    
  0.8744147912    0.9447968108    1.008564587    1.071289092    1.089453154    
  1.025960713    0.9147900989    0.7887547771    0.6682682969    0.5566594621    
  0.4745325406    0.4071288359    0.3564998223    0.3310083786    0.3218631471    
  0.3326206534    0.3633769705    0.4156202869    0.4840334697    0.5752494616    
  0.6845589185    0.7990856507    0.9108641733    0.9906833704    0.9915261058    
  0.9286651711    0.8607254629    0.7961752338    0.7356524776    0.6818112473    
  0.631561683    0.5871397525    0.5440043804    0.5076557794    0.4785798711    
  0.4527349731    0.4331850909    0.4217641421    0.4196440144    0.4252396039    
  0.4390153138    0.4589840142    0.4853571045    0.5160563667    0.5529418047    
  0.5944745058    0.6430213464    0.6964031213    0.7524970195    0.812672497    
  0.8744147912    0.8393189986    0.905871133    0.9682273728    1.038273933    
  1.086663924    1.061651213    0.9794015971    0.8664189685    0.7614862795    
  0.6591610263    0.5686573418    0.5076885862    0.4602729502    0.429867671    
  0.4211367707    0.4314778086    0.4618647536    0.5101305342    0.5782340289    
  0.667934372    0.7649097977    0.8661714319    0.9632773156    0.9998947467    
  0.9551426189    0.8891892111    0.8269189828    0.764006595    0.7078813315    
  0.655697452    0.608205153    0.5635610934    0.5231032871    0.4906702787    
  0.459977509    0.4345309874    0.4177700192    0.4054922767    0.4025278456    
  0.4078247056    0.4201683543    0.4391846421    0.4648874239    0.4954102443    
  0.5303463563    0.5707044431    0.616544788    0.6680439045    0.7221583463    
  0.7802982323    0.8393189986    0.8116510875    0.8737626487    0.9349394276    
  1.003661302    1.06605344    1.080321259    1.046349657    0.9601783588    
  0.8599753098    0.7760863643    0.6905711191    0.6215248527    0.5766810321    
  0.548927754    0.5384439808    0.5469336334    0.5739669735    0.6212746948    
  0.6911182945    0.7680206961    0.8545476325    0.9436827934    0.9943298118    
  0.9760742299    0.913623927    0.8505443129    0.7904001133    0.7313289225    
  0.6788788089    0.6300336913    0.5847492456    0.5408832048    0.5053749518    
  0.4718699938    0.4431379091    0.4244399986    0.4044701411    0.3869723984    
  0.3846358382    0.3946508636    0.4087182485    0.4264407162    0.4510943937    
  0.4807515697    0.513697906    0.5530059175    0.5962740133    0.6462119931    
  0.6987635764    0.7545294954    0.8116510875    0.7890820083    0.847320386    
  0.9066210047    0.9670561087    1.036954512    1.078352335    1.080879812    
  1.046172732    0.9680987627    0.8884189844    0.8240857514    0.7622289408    
  0.7123055892    0.683265938    0.6717167193    0.6802971407    0.7076581149    
  0.7516934129    0.8082454719    0.8713775749    0.9457797842    0.9942062373    
  0.9786170948    0.9255497104    0.8668305242    0.8098848821    0.7517933683    
  0.6985449243    0.650684064    0.6040841742    0.5608123596    0.5213690553    
  0.4873756342    0.4549350319    0.4338235857    0.4106655388    0.3839795278    
  0.3715508305    0.3705640324    0.3850241109    0.403290302    0.4204865127    
  0.4441804777    0.4733714144    0.5055595003    0.5428031827    0.5838050398    
  0.6310339574    0.6813824239    0.7348916485    0.7890820083    0.7736960835    
  0.8265620519    0.8830500236    0.9351352221    1.00196606    1.060725481    
  1.080335105    1.088117476    1.067205531    1.004835887    0.9413276036    
  0.8933623398    0.8553310489    0.829144628    0.8179528547    0.8221554079    
  0.839151904    0.87410905    0.9211087235    0.9685814167    0.9962592556    
  0.9795253238    0.9322563717    0.877384112    0.8230466475    0.7674672521    
  0.7142780193    0.6667097047    0.6216467994    0.5785888355    0.5391221463    
  0.5030624384    0.4701911374    0.4440678527    0.4227986011    0.3925830588    
  0.3776945126    0.3759075227    0.3712365933    0.3868870418    0.4056883988    
  0.4224569248    0.4457932385    0.4732802804    0.5044024197    0.539179368    
  0.5782786916    0.6222419791    0.6704623822    0.7221952916    0.7736960835    
  0.7629134279    0.8114875917    0.8638821974    0.9127275841    0.9631227743    
  1.028002728    1.068696619    1.079688933    1.092180128    1.087137097    
  1.055696462    1.017845734    0.984344494    0.9596636946    0.9482043665    
  0.9509063919    0.9628058385    0.9817239412    0.9986444934    1.003848708    
  0.9764725995    0.925780025    0.8771032676    0.8263590326    0.7753420826    
  0.7240505823    0.6786018535    0.6354227898    0.5928504489    0.5544480505    
  0.5178560943    0.4848318532    0.4566698797    0.4342039511    0.4091856835    
  0.3844449612    0.3787426659    0.3774332018    0.3813789582    0.4023184167    
  0.4164033631    0.4328602806    0.4553942416    0.4811835217    0.5113928711    
  0.543741397    0.5802913401    0.6207252254    0.665633109    0.7128799461    
  0.7629134279    0.7573977941    0.8024049482    0.8470082901    0.8954198122    
  0.9366473544    0.9855219844    1.040047258    1.065460477    1.075314689    
  1.088828679    1.094791983    1.084129324    1.065248394    1.050357637    
  1.038261496    1.031721356    1.031511242    1.02325836    0.9927630393    
  0.9561320135    0.9138709493    0.8671572039    0.823501037    0.7749936491    
  0.7284753032    0.6846069236    0.6439560602    0.6032583286    0.5660128079    
  0.5310728993    0.497140811    0.4696794858    0.4461266604    0.4224211562    
  0.3980085629    0.3838659944    0.3824234183    0.3888434908    0.4062020883    
  0.4217909282    0.4323060344    0.4514037833    0.4721861503    0.4969957632    
  0.5252653518    0.5554134368    0.5892479231    0.6256976446    0.6675370789    
  0.7107611535    0.7573977941    0.7548022714    0.7981783394    0.8383215813    
  0.878862925    0.9204056979    0.9530958206    0.9911108254    1.031723458    
  1.055947291    1.064983734    1.070850568    1.07475865    1.072405582    
  1.064022722    1.046699946    1.02070187    0.9922287216    0.9656506422    
  0.9296568247    0.8901692924    0.851730344    0.8099362799    0.7673623308    
  0.7243022067    0.6843600277    0.6465663064    0.6091859533    0.5734438555    
  0.5405022711    0.5073660529    0.480067394    0.4572694354    0.4338428572    
  0.4110414573    0.3953282542    0.3944514786    0.4033082363    0.4171679297    
  0.4299947328    0.4397109729    0.4561717273    0.475875588    0.4951177179    
  0.5196910292    0.5459568537    0.5748820473    0.6062115963    0.6388839982    
  0.6752701671    0.7141108615    0.7548022714    0.7594830363    0.7950370119    
  0.8335923749    0.8670683999    0.9020697021    0.9334300557    0.9562053651    
  0.9774443081    0.9995326494    1.016150419    1.022406009    1.020209415    
  1.010801745    0.9957849224    0.9775998096    0.9546427825    0.9244997404    
  0.8945143816    0.8634917905    0.8284635072    0.7911117262    0.7526020174    
  0.7143193668    0.678668151    0.6439487346    0.6090141778    0.5762068521    
  0.5450080049    0.5142321145    0.487745103    0.4668853494    0.4433353946    
  0.4211703407    0.4070165116    0.4060724935    0.4160452092    0.4281028879    
  0.4389351336    0.4496511812    0.4660813777    0.485604288    0.5035246288    
  0.525134523    0.548961144    0.5742549672    0.6021346618    0.6305972281    
  0.6614584763    0.6922700779    0.7259627231    0.7594830363    0.7741323941    
  0.8016079713    0.8342651948    0.8654218966    0.8859105495    0.9049216897    
  0.927293247    0.9443577505    0.9523672012    0.9543586399    0.9530947838    
  0.9473172838    0.9364989089    0.923591865    0.9066744533    0.8854184191    
  0.8611367207    0.8313722842    0.7984255462    0.7659088637    0.7321443788    
  0.699544624    0.6673120469    0.6351256882    0.6029672911    0.5730119768    
  0.5449368997    0.515859241    0.492006693    0.473073104    0.4501578433    
  0.4278627621    0.4162971832    0.4159375845    0.4266186809    0.4392548498    
  0.4501164807    0.4627052137    0.4792252628    0.4981500418    0.516479661    
  0.5379702777    0.5617899046    0.5845326508    0.6098974307    0.6369579379    
  0.663749491    0.6918403119    0.7184325407    0.7458636956    0.7741323941    
  0.7965207938    0.8198134363    0.8445592459    0.8690002228    0.879934504    
  0.8828241467    0.8931519552    0.9090280632    0.917044673    0.9135884583    
  0.9056423738    0.8963856184    0.8836936841    0.8660952078    0.8451615535    
  0.8213979776    0.7953013073    0.7677869495    0.7389900955    0.7103171654    
  0.6807010994    0.6510940359    0.6219276223    0.5929597786    0.5656889576    
  0.5399379958    0.5138452523    0.4917286346    0.4749134669    0.4534931111    
  0.4314447113    0.4215739361    0.4236344875    0.4348822119    0.4493678207    
  0.4612865534    0.4756946042    0.4929635355    0.5121198543    0.5319524884    
  0.5545289358    0.5790496635    0.6023052654    0.6272200714    0.6525756788    
  0.6777674699    0.7041728921    0.7292445882    0.7539628593    0.775398108    
  0.7965207938    0.8291779755    0.8462031875    0.8640932392    0.8763494168    
  0.8764597918    0.8747004616    0.8802099879    0.8849403566    0.8805680453    
  0.8726589895    0.8612572416    0.8457050189    0.829266391    0.8092810303    
  0.7873513852    0.7647997    0.7391870203    0.7134354457    0.6865223994    
  0.6581450547    0.6315988377    0.6049879231    0.5789483377    0.5542112126    
  0.530366721    0.5067759781    0.4867557061    0.4721919718    0.4532994988    
  0.4321225971    0.4231314371    0.4271459413    0.4396030874    0.4571900458    
  0.4713713175    0.4865741405    0.506410634    0.5269520885    0.5491618788    
  0.5726911607    0.5977626488    0.6226130245    0.6481188199    0.6741316285    
  0.699054554    0.7238086784    0.7491264939    0.7718978054    0.7939771942    
  0.8134039231    0.8291779755    0.8657439284    0.8755234767    0.8834916893    
  0.8843182205    0.8781570766    0.87508828    0.8767343917    0.8720364393    
  0.8559918792    0.8379849066    0.8219656026    0.8046762745    0.783420907    
  0.7619258152    0.7380050754    0.7121764531    0.6880872682    0.6623219025    
  0.6364077495    0.6115227302    0.5867362747    0.5615968963    0.5388703891    
  0.5177265536    0.4968102078    0.4791016334    0.4656163224    0.4497065623    
  0.4311893488    0.4230465219    0.4274556877    0.4415021586    0.4617030263    
  0.4787365366    0.4951189181    0.5172771048    0.5406620583    0.5645951532    
  0.5903347691    0.6165497742    0.6432362644    0.6703240064    0.6985568493    
  0.7241304126    0.7501629178    0.7746295576    0.7964121685    0.8177217407    
  0.8360330023    0.8525706129    0.8657439284    0.9078701142    0.9139264853    
  0.9133021848    0.9023636227    0.8884628244    0.8819392163    0.8755810958    
  0.8566925708    0.8316449687    0.8080857524    0.7859394874    0.7660727199    
  0.7419753632    0.7164938897    0.6914235763    0.6657398802    0.6408807409    
  0.6151289879    0.5915766817    0.5675721587    0.5433147724    0.5223301475    
  0.5031621047    0.4846040377    0.4685955173    0.4560200365    0.442509172    
  0.4274005973    0.4204707237    0.4259897696    0.4406488174    0.462698883    
  0.482533806    0.4999846322    0.5242951208    0.5507882384    0.5767542037    
  0.6051485832    0.6338856003    0.6629966915    0.69286728    0.7220390069    
  0.7507734379    0.7784802266    0.8056348049    0.8307102879    0.8529376734    
  0.872535014    0.8872257945    0.8985803758    0.9078701142    0.9506973385    
  0.9506308639    0.9465447598    0.9360158685    0.9161264221    0.8943920597    
  0.875929594    0.849964775    0.8167620021    0.7872878722    0.7593028559    
  0.731120476    0.7058541871    0.6784947422    0.6506253091    0.6242138306    
  0.5968477755    0.573129029    0.5503273014    0.5270922288    0.5077783299    
  0.4891788557    0.4705229909    0.4558372113    0.4449686086    0.4331354385    
  0.4197801473    0.413967134    0.4210271425    0.4371138293    0.4596275484    
  0.4812570263    0.5011037776    0.5274135307    0.5570392661    0.5852311385    
  0.6162514399    0.6482819453    0.6803501247    0.7127452382    0.7449341368    
  0.7781755738    0.8105898088    0.8425287533    0.8698271327    0.893180776    
  0.913404436    0.9281576476    0.939495552    0.9471458369    0.9506973385    
  1.013579332    1.003732981    0.9848761515    0.9633544931    0.9432027916    
  0.9166568921    0.8825516345    0.849422981    0.8138359281    0.7759358523    
  0.7427056194    0.7082401144    0.6760069388    0.6454819593    0.6155994383    
  0.587831178    0.5610664175    0.5373233177    0.513631492    0.4945726193    
  0.4761167135    0.4566746594    0.4438741647    0.4339122037    0.4219869779    
  0.409460895    0.4039840613    0.4115506573    0.430277666    0.4529363224    
  0.4755250092    0.4976288049    0.5260089407    0.5581847686    0.5886833865    
  0.6224637604    0.657691168    0.6920050526    0.7286617532    0.7670557367    
  0.8047755476    0.8417796087    0.8744688339    0.9046561238    0.9340010575    
  0.9604412328    0.9812798479    0.9981088257    1.010342902    1.015344113    
  1.013579332    1.066337977    1.057772564    1.04079489    1.007158251    
  0.9671184942    0.9341127078    0.8981098575    0.8563303977    0.8178115352    
  0.7755460592    0.733239234    0.6944174277    0.6563625049    0.6223199726    
  0.5906939005    0.5598398296    0.532613981    0.5069588955    0.485032312    
  0.4662599372    0.4465103186    0.4345199768    0.424420765    0.4091383398    
  0.3965711409    0.3919209256    0.4008281727    0.420236036    0.4436757346    
  0.4661873566    0.4903257157    0.5202573652    0.5537998672    0.587329491    
  0.6234143551    0.661767778    0.6990605891    0.7406803853    0.783327516    
  0.8254125984    0.8650608944    0.9028534042    0.941480195    0.9729610825    
  0.9997802505    1.026723626    1.047906705    1.062995006    1.069954473    
  1.070492353    1.066337977    1.093619021    1.084470063    1.071701847    
  1.052371608    1.008566186    0.9548299935    0.9139419597    0.8692821664    
  0.8225348059    0.7799018615    0.7329247352    0.6883977594    0.6461067099    
  0.606934154    0.5721015181    0.5395558895    0.5111394514    0.4839198806    
  0.4618411584    0.4405969273    0.4262077093    0.4151249286    0.3954592366    
  0.3830515065    0.3815811325    0.3883900392    0.4084794618    0.4324082239    
  0.4549751288    0.4798835936    0.5103430245    0.5450918587    0.580034613    
  0.6188967517    0.6594086672    0.7004834624    0.7451440186    0.792675889    
  0.8378676136    0.8832483584    0.9274919352    0.9662206706    1.002621979    
  1.024970467    1.02974281    1.033369581    1.042076788    1.05576166    
  1.072767484    1.08882548    1.093619021    1.069453782    1.091467295    
  1.087727725    1.074641819    1.04857393    0.9909009293    0.9333362336    
  0.8877118906    0.8353811202    0.7861372306    0.7376225564    0.6884869337    
  0.6427980831    0.5998300739    0.5619247289    0.5274520866    0.4965027054    
  0.4681277717    0.4442705768    0.4231958191    0.4107332247    0.3912951104    
  0.3767215486    0.3787277083    0.3793913631    0.3935290146    0.420140642    
  0.4432703878    0.4671831586    0.4977648849    0.5321096414    0.5689555112    
  0.6087800922    0.6521238851    0.6947356383    0.7429215639    0.7944738842    
  0.8431977674    0.8939040497    0.9425941255    0.9849534595    1.003131386    
  0.9924240052    0.9750696965    0.9592008029    0.9507267917    0.9550324842    
  0.9713556147    1.000035015    1.034764289    1.069453782    0.9763053671    
  1.037637235    1.080230382    1.087096802    1.072284573    1.029205268    
  0.9618472711    0.9066525955    0.8537120515    0.7983249259    0.7475511291    
  0.6955421409    0.6466459181    0.6002746535    0.5588525272    0.5219513895    
  0.4890086103    0.4595045071    0.4341387291    0.4135010242    0.3977856023    
  0.3763958793    0.3719532042    0.3768847229    0.3807544778    0.406919357    
  0.4317459707    0.4535407011    0.4826161981    0.5166984578    0.5539394424    
  0.5950717717    0.6388686811    0.683862669    0.7327989717    0.7869813885    
  0.8398977737    0.894613892    0.9521432874    0.9868908848    0.9868690974    
  0.9543493018    0.9042557133    0.8629204874    0.8364869513    0.8249437512    
  0.8293437377    0.8474604779    0.879544576    0.9222068134    0.9763053671    
  0.8650033562    0.9341487994    1.013014546    1.069289979    1.081954408    
  1.061283558    0.9996002735    0.9323168432    0.8762625042    0.8170724065    
  0.7621628935    0.7080771076    0.6566339158    0.6074230878    0.5633888918    
  0.5249286806    0.4905612602    0.4596614194    0.4331111298    0.4122136431    
  0.396317579    0.3775939762    0.369851598    0.376244963    0.3949825441    
  0.4224473426    0.4407110651    0.4678996847    0.5009646268    0.5363313677    
  0.5773858077    0.6215342968    0.6682877781    0.7172844512    0.7726585866    
  0.8298368497    0.8880136849    0.9471402007    0.98604792    0.9770146887    
  0.9216596413    0.8499492521    0.7900555851    0.7417326328    0.7047427348    
  0.6864301844    0.6862321886    0.7060677662    0.744493403    0.7999265921    
  0.8650033562    0.7429334035    0.8278690295    0.919529548    1.012416685    
  1.071564259    1.081085202    1.033360888    0.9638379177    0.9038229065    
  0.8412777692    0.7831308176    0.727285345    0.6736420356    0.622742724    
  0.5760797624    0.5351455482    0.4987067908    0.4672583612    0.4402474577    
  0.4180223683    0.4032576085    0.3915853365    0.3858164933    0.3956635341    
  0.4135885649    0.4317159399    0.4541906938    0.4860950827    0.5185206243    
  0.5576899054    0.601915093    0.6477718672    0.6977061622    0.7516529646    
  0.8114408534    0.8700057106    0.9321203277    0.9853727815    0.9800874747    
  0.9142476144    0.8285636312    0.7431195133    0.6711896736    0.6123684899    
  0.5727310022    0.5555617671    0.5549170841    0.5741665797    0.6108475353    
  0.6659882626    0.7429334035    0.6270140254    0.7241616818    0.8278081668    
  0.9368494417    1.034327688    1.083500564    1.063167375    1.001143201    
  0.9374125109    0.8718542103    0.8106750898    0.7526230593    0.6968304591    
  0.6443796753    0.5952726024    0.5530614293    0.5154718958    0.4828477646    
  0.4547276623    0.4319441103    0.4156222665    0.4066606349    0.4041686094    
  0.4110904129    0.4244613226    0.4451476406    0.4730954193    0.5030728508    
  0.5384496902    0.5811725002    0.6256676449    0.6748985327    0.7271343292    
  0.7850728798    0.8480614645    0.9116048047    0.972509857    0.9926266096    
  0.9365420568    0.8354004254    0.7335128592    0.6413710147    0.5616010012    
  0.502009779    0.4625855299    0.4416952688    0.440762624    0.4588842738    
  0.497323373    0.5528122382    0.6270140254    0.532387397    0.6297603772    
  0.7461099804    0.8691731774    0.9876609465    1.074159901    1.093210968    
  1.042964041    0.9765495169    0.9101977028    0.844925893    0.7850916404    
  0.7274338212    0.673155304    0.6220018553    0.5770961188    0.5376925879    
  0.5042905765    0.4752112937    0.4522323086    0.4346876911    0.4243098421    
  0.4219419539    0.427613321    0.4423809374    0.4641410193    0.4902011865    
  0.5218317853    0.5611362998    0.603787225    0.6502451355    0.7017251443    
  0.7556707783    0.8190514324    0.8812138134    0.9490894609    1.004361824    
  0.9718220214    0.8731982966    0.7632439606    0.6516186804    0.5519919084    
  0.4702885344    0.4086836748    0.3663421726    0.3425841397    0.3419967101    
  0.3592184719    0.3960616962    0.4564547976    0.532387397    0.4607924302    
  0.5604456686    0.6817194564    0.8184824041    0.9526369875    1.067575631    
  1.123018367    1.088942523    1.021936139    0.9552891735    0.8858872614    
  0.8239265568    0.7637029987    0.7071318895    0.6544728038    0.6073556109    
  0.5667339912    0.5323170983    0.5025139249    0.4781580039    0.4601493037    
  0.4487698224    0.4452926228    0.4501130894    0.4631841618    0.4829162284    
  0.5100576273    0.5438442755    0.5825538779    0.626469375    0.6758002182    
  0.7272870658    0.7835945599    0.8498425833    0.9131972935    0.9779140917    
  1.008314449    0.940170888    0.8222819639    0.7023875047    0.5828634312    
  0.4819249073    0.3991088782    0.3329212585    0.2870293551    0.2611398992    
  0.2586137619    0.2807080069    0.3205474407    0.3788850396    0.4607924302    
  0.4130004241    0.5178641493    0.6416842402    0.7879163885    0.9369083171    
  1.068148751    1.149081013    1.138029345    1.074762715    1.005635724    
  0.9332000721    0.8687824666    0.8068310793    0.7481723199    0.6929605528    
  0.6436447376    0.6012429622    0.5644262569    0.5341397257    0.5090316549    
  0.4903242012    0.4780548815    0.4732582025    0.4765779135    0.48776065    
  0.5067878805    0.5327451152    0.5649907028    0.6050600058    0.6503760321    
  0.6986952157    0.7515537454    0.8118857381    0.8754924319    0.9450340899    
  1.008582055    1.000601123    0.9108196213    0.7872511466    0.6541667888    
  0.5331151668    0.4313014444    0.3443491357    0.2756396574    0.2225285598    
  0.1905306804    0.1861470188    0.2110033404    0.2628068435    0.327885971    
  0.4130004241    0.3938702367    0.5042605487    0.6328768688    0.7827885713    
  0.9420210307    1.084242909    1.180019807    1.188642205    1.131879574    
  1.060811862    0.9875080368    0.9201816009    0.8559011669    0.7952102673    
  0.7380476322    0.6863633592    0.641712094    0.6036999859    0.5717182802    
  0.5445750368    0.5241666686    0.5106097923    0.5048902617    0.5065401205    
  0.5159747614    0.5326859188    0.5566088829    0.5887436916    0.628369781    
  0.6728391878    0.7221637957    0.774801871    0.8363904893    0.8989810013    
  0.9707469051    1.032397709    0.9967470464    0.8912273341    0.763803465    
  0.6253526249    0.5053918687    0.4008142357    0.3106725078    0.2367733601    
  0.1734695186    0.1304463427    0.1302769721    0.1679169158    0.2309438956    
  0.3058566021    0.3938702367    0.4061638193    0.5177262238    0.6504980966    
  0.8041091154    0.9695722843    1.120128666    1.223013832    1.242851796    
  1.193675298    1.122784738    1.048443637    0.9785899064    0.9128993665    
  0.8500067321    0.7902334667    0.7362423785    0.6888731559    0.6486181632    
  0.6142249759    0.5857726289    0.5639175887    0.5482755197    0.5403479634    
  0.5391453119    0.5465698934    0.5610010088    0.5833584763    0.6143019447    
  0.651756993    0.6950332171    0.7445155745    0.7961051723    0.8570464139    
  0.919368964    0.989913524    1.047330774    0.9993185769    0.8878335659    
  0.7586556258    0.6171647328    0.4953352589    0.3881869595    0.2989723723    
  0.2209098919    0.1547439204    0.1092672701    0.112728356    0.1634893557    
  0.232981764    0.3142536049    0.4061638193    0.4428762741    0.5561923474    
  0.6940363011    0.8532433834    1.022290324    1.17602463    1.280597577    
  1.30518259    1.26099234    1.190180895    1.11468625    1.043381486    
  0.9760131753    0.9108910994    0.8486554046    0.7925771715    0.7429797864    
  0.7001133725    0.6636084854    0.6326147589    0.6079282142    0.5900463626    
  0.5799666323    0.5761528405    0.5803382855    0.5918381383    0.6111659068    
  0.6395500172    0.6761225387    0.7181028988    0.7643989786    0.8147999871    
  0.8747109483    0.935458651    1.005414616    1.059756115    1.009043009    
  0.8981737787    0.7685566134    0.6259655279    0.506549363    0.3974348813    
  0.3090541448    0.2325925185    0.1689850031    0.1379814208    0.148239642    
  0.1984891853    0.268283819    0.3495036794    0.4428762741    0.5015847651    
  0.6204944119    0.7624944248    0.9262870565    1.098598163    1.252359529    
  1.352857787    1.375292746    1.331183257    1.259962247    1.18467106    
  1.112726615    1.042720713    0.9755539802    0.9115837517    0.8525386242    
  0.8009034298    0.7560788233    0.7175395832    0.6844462524    0.6581900371    
  0.6378228781    0.6241709821    0.6174018053    0.6172252537    0.6250528641    
  0.6409115556    0.6666530389    0.6995212088    0.7386038423    0.7838322214    
  0.8315158111    0.8870656863    0.9469314126    1.0174164    1.068847009    
  1.026358467    0.9232971539    0.7969089385    0.6552615381    0.5346801414    
  0.4262715458    0.3374778759    0.2695349531    0.2170504202    0.1975278715    
  0.2131285911    0.261742103    0.327026129    0.4036519072    0.5015847651    
  0.5827233132    0.7051124402    0.8562827747    1.026662853    1.198532476    
  1.345487021    1.434661412    1.448735558    1.401576401    1.330396394    